<?xml version="1.0"?>
<VTKFile byte_order="LittleEndian" type="UnstructuredGrid" version="0.1">
<UnstructuredGrid>
<Piece NumberOfCells="288" NumberOfPoints="384">
<PointData>
<DataArray Name="Warping_X" format="ascii" type="Float64">
-3.18825 -3.19754 -3.43518 -3.63133 -3.77679 -3.87231 -3.9198 -3.92167 -3.88127 -3.80236 -3.68948 -3.54752 -3.38169 -3.29361 -3.39611 -3.65142 -3.85215 -3.9982 -4.09077 -4.13181 -4.12409 -4.07109 -3.97708 -3.84683 -3.68562 -3.49925 -3.38958 -3.61296 -3.87636 -4.08127 -4.22755 -4.31666 -4.35066 -4.33251 -4.26615 -4.15602 -4.00734 -3.82593 -3.61784 -3.48544 -3.83859 -4.10981 -4.31845 -4.46478 -4.54991 -4.57619 -4.54694 -4.46628 -4.33917 -4.17109 -3.9683 -3.73744 -1.48285 -3.00077 -2.7972 -2.59244 -2.3921 -2.2014 -2.02531 -1.86822 -1.73409 -1.62618 -1.54721 -1.49904 -1.40299 -3.07488 -2.84934 -2.62307 -2.40213 -2.19213 -1.99844 -1.82585 -1.67857 -1.56018 -1.47354 -1.42074 -1.31434 -3.14777 -2.89912 -2.65029 -2.40769 -2.1775 -1.96538 -1.77649 -1.61546 -1.48609 -1.39142 -1.33372 -1.21699 -3.21942 -2.94658 -2.6741 -2.40887 -2.15751 -1.92609 -1.72023 -1.54478 -1.4039 -1.30089 -1.23808 -3.19754 -1.49904 -1.54721 -1.62618 -1.73409 -1.86822 -2.02531 -2.2014 -2.3921 -2.59244 -2.7972 -3.00077 -3.29361 -1.42074 -1.47354 -1.56018 -1.67857 -1.82585 -1.99844 -2.19213 -2.40213 -2.62307 -2.84934 -3.07488 -3.38958 -1.33372 -1.39142 -1.48609 -1.61546 -1.77649 -1.96538 -2.1775 -2.40769 -2.65029 -2.89912 -3.14777 -3.48544 -1.23808 -1.30089 -1.4039 -1.54478 -1.72023 -1.92609 -2.15751 -2.40887 -2.6741 -2.94658 -3.21942 -3.18825 -3.38169 -3.54752 -3.68948 -3.80236 -3.88127 -3.92167 -3.9198 -3.87231 -3.77679 -3.63133 -3.43518 -3.39611 -3.49925 -3.68562 -3.84683 -3.97708 -4.07109 -4.12409 -4.13181 -4.09077 -3.9982 -3.85215 -3.65142 -3.61296 -3.61784 -3.82593 -4.00734 -4.15602 -4.26615 -4.33251 -4.35066 -4.31666 -4.22755 -4.08127 -3.87636 -3.83859 -3.73744 -3.9683 -4.17109 -4.33917 -4.46628 -4.54694 -4.57619 -4.54991 -4.46478 -4.31845 -4.10981 3.16439 -2.87476 -2.51219 -2.1007 -1.64204 -1.13928 -0.596258 -0.018193 0.589172 1.21882 1.86339 2.51465 3.2467 -3.08207 -2.71303 -2.2904 -1.81582 -1.29243 -0.724646 -0.117816 0.521572 1.18602 1.86767 2.55753 3.32917 -3.297 -2.92165 -2.48736 -1.99634 -1.45183 -0.85835 -0.222091 0.450108 1.15045 1.87001 2.59955 3.41145 -3.52074 -3.13862 -2.69251 -2.18437 -1.61793 -0.998301 -0.33163 0.374386 1.11146 1.8701 2.6403 7.90244 3.80376 4.42393 5.01635 5.57253 6.08454 6.54465 6.94639 7.28352 7.55127 7.74536 7.86299 8.2916 3.92569 4.58495 5.21533 5.80745 6.35284 6.84337 7.27162 7.63129 7.91687 8.12402 8.24951 8.68869 4.04878 4.74821 5.4173 6.04643 6.62605 7.14752 7.6032 7.98583 8.28968 8.51023 8.6439 9.09361 4.17275 4.91331 5.62232 6.28925 6.90396 7.4574 7.94092 8.34723 8.66996 8.904 9.04605 3.16439 7.86299 7.74536 7.55127 7.28352 6.94639 6.54465 6.08454 5.57253 5.01635 4.42393 3.80376 3.2467 8.24951 8.12402 7.91687 7.63129 7.27162 6.84337 6.35284 5.80745 5.21533 4.58495 3.92569 3.32917 8.6439 8.51023 8.28968 7.98583 7.6032 7.14752 6.62605 6.04643 5.4173 4.74821 4.04878 3.41145 9.04605 8.904 8.66996 8.34723 7.94092 7.4574 6.90396 6.28925 5.62232 4.91331 4.17275 2.51465 1.86339 1.21882 0.589172 -0.018193 -0.596258 -1.13928 -1.64204 -2.1007 -2.51219 -2.87476 2.55753 1.86767 1.18602 0.521572 -0.117816 -0.724646 -1.29243 -1.81582 -2.2904 -2.71303 -3.08207 2.59955 1.87001 1.15045 0.450108 -0.222091 -0.85835 -1.45183 -1.99634 -2.48736 -2.92165 -3.297 2.6403 1.8701 1.11146 0.374386 -0.33163 -0.998301 -1.61793 -2.18437 -2.69251 -3.13862 -3.52074 
</DataArray>
<DataArray Name="Warping_Y" format="ascii" type="Float64">
3.57755 -0.28307 3.21082 2.83189 2.44837 2.06656 1.6927 1.33251 0.991409 0.674115 0.384894 0.127185 -0.0961038 -0.395143 3.73225 3.33574 2.92754 2.51498 2.10498 1.70411 1.31865 0.954283 0.616142 0.308819 0.035947 -0.199399 -0.515884 3.88699 3.45957 3.02085 2.57822 2.13901 1.71027 1.29858 0.910238 0.550719 0.224729 -0.0636591 -0.311288 -0.645233 4.04179 3.58218 3.112 2.63825 2.16873 1.7111 1.27251 0.859408 0.477785 0.132691 -0.171581 -0.431712 -6.02213e-11 -0.43241 -0.543725 -0.617378 -0.654584 -0.657241 -0.627926 -0.569952 -0.487124 -0.383824 -0.264779 -0.13508 -5.75831e-11 -0.54995 -0.663404 -0.735999 -0.768975 -0.764431 -0.725256 -0.654964 -0.557751 -0.43834 -0.301875 -0.153851 -5.49436e-11 -0.676084 -0.791493 -0.86259 -0.890858 -0.878542 -0.828709 -0.745273 -0.632733 -0.496198 -0.341241 -0.173759 -5.23057e-11 -0.810753 -0.927857 -0.997172 -1.02021 -0.999436 -0.938252 -0.840823 -0.712023 -0.557337 -0.3828 -0.194787 0.28307 0.13508 0.264779 0.383824 0.487124 0.569952 0.627926 0.657241 0.654584 0.617378 0.543725 0.43241 0.395143 0.153851 0.301875 0.43834 0.557751 0.654964 0.725256 0.764431 0.768975 0.735999 0.663404 0.54995 0.515884 0.173759 0.341241 0.496198 0.632733 0.745273 0.828709 0.878542 0.890858 0.86259 0.791493 0.676084 0.645233 0.194787 0.3828 0.557337 0.712023 0.840823 0.938252 0.999436 1.02021 0.997172 0.927857 0.810753 -3.57755 0.0961038 -0.127185 -0.384894 -0.674115 -0.991409 -1.33251 -1.6927 -2.06656 -2.44837 -2.83189 -3.21082 -3.73225 0.199399 -0.035947 -0.308819 -0.616142 -0.954283 -1.31865 -1.70411 -2.10498 -2.51498 -2.92754 -3.33574 -3.88699 0.311288 0.0636591 -0.224729 -0.550719 -0.910238 -1.29858 -1.71027 -2.13901 -2.57822 -3.02085 -3.45957 -4.04179 0.431712 0.171581 -0.132691 -0.477785 -0.859408 -1.27251 -1.7111 -2.16873 -2.63825 -3.112 -3.58218 -5.74855 -3.93948 -4.29167 -4.62831 -4.9407 -5.22102 -5.46162 -5.65576 -5.79724 -5.88094 -5.90273 -5.85922 -6.11865 -4.12116 -4.50327 -4.86867 -5.20862 -5.51444 -5.77796 -5.99168 -6.14914 -6.24452 -6.27331 -6.23211 -6.49711 -4.30589 -4.71836 -5.11351 -5.48181 -5.81386 -6.1009 -6.33493 -6.50863 -6.61603 -6.65223 -6.61337 -6.88426 -4.4931 -4.93665 -5.36262 -5.76017 -6.11929 -6.43057 -6.68539 -6.87607 -6.9959 -7.03961 -7.00331 1.56807e-10 -5.56976 -5.32336 -5.01066 -4.63466 -4.19905 -3.70873 -3.16955 -2.58822 -1.97226 -1.32979 -0.66941 1.36511e-10 -5.93195 -5.67245 -5.34174 -4.94283 -4.47964 -3.95764 -3.38303 -2.76302 -2.10578 -1.41997 -0.714851 1.16379e-10 -6.30236 -6.02953 -5.68032 -5.25794 -4.7668 -4.21234 -3.60143 -2.94196 -2.24249 -1.51235 -0.761344 9.60782e-11 -6.68133 -6.39485 -6.02686 -5.58054 -5.06055 -4.47295 -3.82507 -3.12511 -2.38232 -1.60678 -0.80893 5.74855 0.66941 1.32979 1.97226 2.58822 3.16955 3.70873 4.19905 4.63466 5.01066 5.32336 5.56976 6.11865 0.714851 1.41997 2.10578 2.76302 3.38303 3.95764 4.47964 4.94283 5.34174 5.67245 5.93195 6.49711 0.761344 1.51235 2.24249 2.94196 3.60143 4.21234 4.7668 5.25794 5.68032 6.02953 6.30236 6.88426 0.80893 1.60678 2.38232 3.12511 3.82507 4.47295 5.06055 5.58054 6.02686 6.39485 6.68133 5.85922 5.90273 5.88094 5.79724 5.65576 5.46162 5.22102 4.9407 4.62831 4.29167 3.93948 6.23211 6.27331 6.24452 6.14914 5.99168 5.77796 5.51444 5.20862 4.86867 4.50327 4.12116 6.61337 6.65223 6.61603 6.50863 6.33493 6.1009 5.81386 5.48181 5.11351 4.71836 4.30589 7.00331 7.03961 6.9959 6.87607 6.68539 6.43057 6.11929 5.76017 5.36262 4.93665 4.4931 
</DataArray>
<DataArray Name="Warping_Z" format="ascii" type="Float64">
0 0 0 0 0 0 0 0 0 0 0 0 0 0 0 0 0 0 0 0 0 0 0 0 0 0 0 0 0 0 0 0 0 0 0 0 0 0 0 0 0 0 0 0 0 0 0 0 0 0 0 0 0 0 0 0 0 0 0 0 0 0 0 0 0 0 0 0 0 0 0 0 0 0 0 0 0 0 0 0 0 0 0 0 0 0 0 0 0 0 0 0 0 0 0 0 0 0 0 0 0 0 0 0 0 0 0 0 0 0 0 0 0 0 0 0 0 0 0 0 0 0 0 0 0 0 0 0 0 0 0 0 0 0 0 0 0 0 0 0 0 0 0 0 0 0 0 0 0 0 0 0 0 0 0 0 0 0 0 0 0 0 0 0 0 0 0 0 0 0 0 0 0 0 0 0 0 0 0 0 0 0 0 0 0 0 0 0 0 0 0 0 0 0 0 0 0 0 0 0 0 0 0 0 0 0 0 0 0 0 0 0 0 0 0 0 0 0 0 0 0 0 0 0 0 0 0 0 0 0 0 0 0 0 0 0 0 0 0 0 0 0 0 0 0 0 0 0 0 0 0 0 0 0 0 0 0 0 0 0 0 0 0 0 0 0 0 0 0 0 0 0 0 0 0 0 0 0 0 0 0 0 0 0 0 0 0 0 0 0 0 0 0 0 0 0 0 0 0 0 0 0 0 0 0 0 0 0 0 0 0 0 0 0 0 0 0 0 0 0 0 0 0 0 0 0 0 0 0 0 0 0 0 0 0 0 0 0 0 0 0 0 0 0 0 0 0 0 0 0 0 0 0 0 0 0 0 0 0 0 0 0 0 0 0 0 0 0 0 0 0 0 0 0 0 0 0 0 0 0 0 0 0 0 
</DataArray>
</PointData>
<CellData>
<DataArray Name="MaterialId" format="ascii" type="Float64">
1 1 1 1 1 1 1 1 1 1 1 1 1 1 1 1 1 1 1 1 1 1 1 1 1 1 1 1 1 1 1 1 1 1 1 1 1 1 1 1 1 1 1 1 1 1 1 1 1 1 1 1 1 1 1 1 1 1 1 1 1 1 1 1 1 1 1 1 1 1 1 1 1 1 1 1 1 1 1 1 1 1 1 1 1 1 1 1 1 1 1 1 1 1 1 1 1 1 1 1 1 1 1 1 1 1 1 1 1 1 1 1 1 1 1 1 1 1 1 1 1 1 1 1 1 1 1 1 1 1 1 1 1 1 1 1 1 1 1 1 1 1 1 1 2 2 2 2 2 2 2 2 2 2 2 2 2 2 2 2 2 2 2 2 2 2 2 2 2 2 2 2 2 2 2 2 2 2 2 2 2 2 2 2 2 2 2 2 2 2 2 2 2 2 2 2 2 2 2 2 2 2 2 2 2 2 2 2 2 2 2 2 2 2 2 2 2 2 2 2 2 2 2 2 2 2 2 2 2 2 2 2 2 2 2 2 2 2 2 2 2 2 2 2 2 2 2 2 2 2 2 2 2 2 2 2 2 2 2 2 2 2 2 2 2 2 2 2 2 2 2 2 2 2 2 2 2 2 2 2 2 2 2 2 2 2 2 2 
</DataArray>
<DataArray Name="FiberAngle" format="ascii" type="Float64">
0 0 0 0 0 0 0 0 0 0 0 0 0 0 0 0 0 0 0 0 0 0 0 0 0 0 0 0 0 0 0 0 0 0 0 0 0 0 0 0 0 0 0 0 0 0 0 0 0 0 0 0 0 0 0 0 0 0 0 0 0 0 0 0 0 0 0 0 0 0 0 0 0 0 0 0 0 0 0 0 0 0 0 0 0 0 0 0 0 0 0 0 0 0 0 0 0 0 0 0 0 0 0 0 0 0 0 0 0 0 0 0 0 0 0 0 0 0 0 0 0 0 0 0 0 0 0 0 0 0 0 0 0 0 0 0 0 0 0 0 0 0 0 0 0 0 0 0 0 0 0 0 0 0 0 0 0 0 0 0 0 0 0 0 0 0 0 0 0 0 0 0 0 0 0 0 0 0 0 0 0 0 0 0 0 0 0 0 0 0 0 0 0 0 0 0 0 0 0 0 0 0 0 0 0 0 0 0 0 0 0 0 0 0 0 0 0 0 0 0 0 0 0 0 0 0 0 0 0 0 0 0 0 0 0 0 0 0 0 0 0 0 0 0 0 0 0 0 0 0 0 0 0 0 0 0 0 0 0 0 0 0 0 0 0 0 0 0 0 0 0 0 0 0 0 0 0 0 0 0 0 0 0 0 0 0 0 0 
</DataArray>
<DataArray Name="Strain_11" format="ascii" type="Float64">
43.9285 39.348 34.7838 30.2633 25.8138 21.4547 17.2045 13.0811 9.1031 5.28669 1.64843 -1.79596 43.8693 39.141 34.4095 29.7439 25.1481 20.6416 16.2449 11.9768 7.85492 3.89749 0.120986 -3.45812 43.7762 38.9017 34.0325 29.2154 24.4699 19.8153 15.2711 10.8569 6.59198 2.4937 -1.42011 -5.13215 -5.03261 -8.04726 -10.8285 -13.364 -15.6442 -17.6599 -19.4022 -20.8649 -22.0421 -22.9292 -23.5221 -23.8192 -6.82441 -9.96346 -12.8616 -15.5072 -17.8886 -19.9943 -21.8171 -23.3481 -24.5806 -25.51 -26.1315 -26.4431 -8.62625 -11.8868 -14.9002 -17.6524 -20.1313 -22.3255 -24.2255 -25.8223 -27.1084 -28.0782 -28.7274 -29.0528 -23.8192 -23.5221 -22.9292 -22.0421 -20.8649 -19.4022 -17.6599 -15.6442 -13.364 -10.8285 -8.04726 -5.03261 -26.4431 -26.1315 -25.51 -24.5806 -23.3481 -21.8171 -19.9943 -17.8886 -15.5072 -12.8616 -9.96346 -6.82441 -29.0528 -28.7274 -28.0782 -27.1084 -25.8223 -24.2255 -22.3255 -20.1313 -17.6524 -14.9002 -11.8868 -8.62625 -1.79596 1.64843 5.28669 9.1031 13.0811 17.2045 21.4547 25.8138 30.2633 34.7838 39.348 43.9285 -3.45812 0.120986 3.89749 7.85492 11.9768 16.2449 20.6416 25.1481 29.7439 34.4095 39.141 43.8693 -5.13215 -1.42011 2.4937 6.59198 10.8569 15.2711 19.8153 24.4699 29.2154 34.0325 38.9017 43.7762 50.2406 54.6912 59.0518 63.3655 67.6107 71.7764 75.8479 79.8118 83.6528 87.357 90.9089 94.2926 48.5244 53.353 58.0809 62.7705 67.3871 71.9122 76.3244 80.6052 84.736 88.6987 92.4768 96.0539 47.0174 52.0818 57.1824 62.2159 67.1768 72.035 76.7661 81.3459 85.7519 89.9641 93.9638 97.7338 97.4934 100.495 103.283 105.841 108.157 110.216 112.005 113.514 114.734 115.656 116.274 116.584 99.415 102.546 105.434 108.067 110.436 112.528 114.338 115.857 117.079 118 118.616 118.924 101.259 104.526 107.526 110.246 112.681 114.822 116.666 118.208 119.444 120.374 120.994 121.304 116.584 116.274 115.656 114.734 113.514 112.005 110.216 108.157 105.841 103.283 100.495 97.4934 118.924 118.616 118 117.079 115.857 114.338 112.528 110.436 108.067 105.434 102.546 99.415 121.304 120.994 120.374 119.444 118.208 116.666 114.822 112.681 110.246 107.526 104.526 101.259 94.2926 90.9089 87.357 83.6528 79.8118 75.8479 71.7764 67.6107 63.3655 59.0518 54.6912 50.2406 96.0539 92.4768 88.6987 84.736 80.6052 76.3244 71.9122 67.3871 62.7705 58.0809 53.353 48.5244 97.7338 93.9638 89.9641 85.7519 81.3459 76.7661 72.035 67.1768 62.2159 57.1824 52.0818 47.0174 
</DataArray>
<DataArray Name="Strain_22" format="ascii" type="Float64">
44.0279 39.373 34.8322 30.3286 25.8929 21.5407 17.2933 13.166 9.17805 5.34604 1.68592 -1.78546 43.9437 39.1114 34.4017 29.7361 25.1365 20.6291 16.2305 11.9617 7.84008 3.88234 0.106834 -3.47113 43.8702 38.8535 33.9835 29.1489 24.3903 19.7268 15.1802 10.7688 6.51275 2.4296 -1.46373 -5.14983 -5.05373 -8.10367 -10.9223 -13.4971 -15.8163 -17.8694 -19.6472 -21.1411 -22.3448 -23.2525 -23.8598 -24.1641 -6.83587 -9.97275 -12.8693 -15.5122 -17.8907 -19.9949 -21.8149 -23.344 -24.5748 -25.5027 -26.1237 -26.4344 -8.61343 -11.8403 -14.817 -17.5317 -19.9729 -22.1304 -23.9962 -25.5627 -26.8232 -27.7727 -28.408 -28.7264 -24.1641 -23.8598 -23.2525 -22.3448 -21.1411 -19.6472 -17.8694 -15.8163 -13.4971 -10.9223 -8.10367 -5.05373 -26.4344 -26.1237 -25.5027 -24.5748 -23.344 -21.8149 -19.9949 -17.8907 -15.5122 -12.8693 -9.97275 -6.83587 -28.7264 -28.408 -27.7727 -26.8232 -25.5627 -23.9962 -22.1304 -19.9729 -17.5317 -14.817 -11.8403 -8.61343 -1.78546 1.68592 5.34604 9.17805 13.166 17.2933 21.5407 25.8929 30.3286 34.8322 39.373 44.0279 -3.47113 0.106834 3.88234 7.84008 11.9617 16.2305 20.6291 25.1365 29.7361 34.4017 39.1114 43.9437 -5.14983 -1.46373 2.4296 6.51275 10.7688 15.1802 19.7268 24.3903 29.1489 33.9835 38.8535 43.8702 48.4136 52.7416 57.398 61.9537 66.4511 70.8551 75.1435 79.2964 83.2922 87.1124 90.7406 94.1605 48.7845 53.4365 58.1221 62.7681 67.3395 71.8229 76.2002 80.4512 84.5588 88.5063 92.2755 95.8509 49.0919 54.054 58.8224 63.5732 68.2436 72.8287 77.3108 81.6751 85.9048 89.984 93.8964 97.6241 97.3592 100.324 103.045 105.514 107.724 109.667 111.341 112.74 113.863 114.706 115.269 115.551 99.2167 102.358 105.261 107.913 110.301 112.416 114.247 115.786 117.026 117.961 118.587 118.9 101.15 104.457 107.529 110.349 112.901 115.169 117.142 118.806 120.15 121.166 121.847 122.189 115.551 115.269 114.706 113.863 112.74 111.341 109.667 107.724 105.514 103.045 100.324 97.3592 118.9 118.587 117.961 117.026 115.786 114.247 112.416 110.301 107.913 105.261 102.358 99.2167 122.189 121.847 121.166 120.15 118.806 117.142 115.169 112.901 110.349 107.529 104.457 101.15 94.1605 90.7406 87.1124 83.2922 79.2964 75.1435 70.8551 66.4511 61.9537 57.398 52.7416 48.4136 95.8509 92.2755 88.5063 84.5588 80.4512 76.2002 71.8229 67.3395 62.7681 58.1221 53.4365 48.7845 97.6241 93.8964 89.984 85.9048 81.6751 77.3108 72.8287 68.2436 63.5732 58.8224 54.054 49.0919 
</DataArray>
<DataArray Name="Strain_12" format="ascii" type="Float64">
-0.0360437 0.0167896 -0.025855 -0.0407391 -0.0602576 -0.0839364 -0.110665 -0.137601 -0.165424 -0.191884 -0.215263 -0.235554 -0.0199676 -0.0106092 -0.0164165 -0.0147304 -0.0124233 -0.0102952 -0.00758732 -0.00541971 -0.00266012 0.000557771 0.00242203 0.00509997 0.0194655 -0.025669 0.015555 0.0291169 0.0482277 0.0721263 0.0977641 0.125468 0.152436 0.178277 0.202259 0.222337 -0.250854 -0.260943 -0.264543 -0.26137 -0.251702 -0.234972 -0.211343 -0.182389 -0.14739 -0.108654 -0.0663679 -0.022428 0.00714264 0.00844812 0.0101153 0.0101931 0.0112132 0.0107906 0.00939401 0.00913291 0.00727529 0.00529635 0.00330118 0.00112477 0.237959 0.248056 0.252273 0.24998 0.240862 0.22482 0.203405 0.174843 0.141571 0.104651 0.0638265 0.02158 0.022428 0.0663679 0.108654 0.14739 0.182389 0.211343 0.234972 0.251702 0.26137 0.264543 0.260943 0.250854 -0.00112477 -0.00330118 -0.00529635 -0.00727529 -0.00913291 -0.00939401 -0.0107906 -0.0112132 -0.0101931 -0.0101153 -0.00844812 -0.00714264 -0.02158 -0.0638265 -0.104651 -0.141571 -0.174843 -0.203405 -0.22482 -0.240862 -0.24998 -0.252273 -0.248056 -0.237959 0.235554 0.215263 0.191884 0.165424 0.137601 0.110665 0.0839364 0.0602576 0.0407391 0.025855 -0.0167896 0.0360437 -0.00509997 -0.00242203 -0.000557771 0.00266012 0.00541971 0.00758732 0.0102952 0.0124233 0.0147304 0.0164165 0.0106092 0.0199676 -0.222337 -0.202259 -0.178277 -0.152436 -0.125468 -0.0977641 -0.0721263 -0.0482277 -0.0291169 -0.015555 0.025669 -0.0194655 -0.21689 0.241781 0.369204 0.498787 0.56534 0.581819 0.552039 0.482501 0.382742 0.26083 0.125471 -0.0131151 -0.196176 -0.34622 -0.300925 -0.310275 -0.295206 -0.27686 -0.251756 -0.221434 -0.188228 -0.153347 -0.116836 -0.0821365 -0.241442 -0.554773 -0.732803 -0.843125 -0.89974 -0.897458 -0.844916 -0.750013 -0.620945 -0.468316 -0.302657 -0.13331 -0.14709 -0.26793 -0.369393 -0.446176 -0.493992 -0.511143 -0.497789 -0.45372 -0.38398 -0.291059 -0.181802 -0.0617241 -0.0492792 -0.019274 0.0053989 0.0266414 0.0406193 0.0499945 0.0545136 0.051677 0.0458616 0.0359263 0.0227007 0.00775857 0.0297103 0.177969 0.303724 0.401151 0.466582 0.4979 0.492875 0.456364 0.389268 0.296534 0.18611 0.0632709 0.0617241 0.181802 0.291059 0.38398 0.45372 0.497789 0.511143 0.493992 0.446176 0.369393 0.26793 0.14709 -0.00775857 -0.0227007 -0.0359263 -0.0458616 -0.051677 -0.0545136 -0.0499945 -0.0406193 -0.0266414 -0.0053989 0.019274 0.0492792 -0.0632709 -0.18611 -0.296534 -0.389268 -0.456364 -0.492875 -0.4979 -0.466582 -0.401151 -0.303724 -0.177969 -0.0297103 0.0131151 -0.125471 -0.26083 -0.382742 -0.482501 -0.552039 -0.581819 -0.56534 -0.498787 -0.369204 -0.241781 0.21689 0.0821365 0.116836 0.153347 0.188228 0.221434 0.251756 0.27686 0.295206 0.310275 0.300925 0.34622 0.196176 0.13331 0.302657 0.468316 0.620945 0.750013 0.844916 0.897458 0.89974 0.843125 0.732803 0.554773 0.241442 
</DataArray>
<DataArray Name="Strain_13" format="ascii" type="Float64">
0 0 0 0 0 0 0 0 0 0 0 0 0 0 0 0 0 0 0 0 0 0 0 0 0 0 0 0 0 0 0 0 0 0 0 0 0 0 0 0 0 0 0 0 0 0 0 0 0 0 0 0 0 0 0 0 0 0 0 0 0 0 0 0 0 0 0 0 0 0 0 0 0 0 0 0 0 0 0 0 0 0 0 0 0 0 0 0 0 0 0 0 0 0 0 0 0 0 0 0 0 0 0 0 0 0 0 0 0 0 0 0 0 0 0 0 0 0 0 0 0 0 0 0 0 0 0 0 0 0 0 0 0 0 0 0 0 0 0 0 0 0 0 0 0 0 0 0 0 0 0 0 0 0 0 0 0 0 0 0 0 0 0 0 0 0 0 0 0 0 0 0 0 0 0 0 0 0 0 0 0 0 0 0 0 0 0 0 0 0 0 0 0 0 0 0 0 0 0 0 0 0 0 0 0 0 0 0 0 0 0 0 0 0 0 0 0 0 0 0 0 0 0 0 0 0 0 0 0 0 0 0 0 0 0 0 0 0 0 0 0 0 0 0 0 0 0 0 0 0 0 0 0 0 0 0 0 0 0 0 0 0 0 0 0 0 0 0 0 0 0 0 0 0 0 0 0 0 0 0 0 0 0 0 0 0 0 0 
</DataArray>
<DataArray Name="Strain_23" format="ascii" type="Float64">
0 0 0 0 0 0 0 0 0 0 0 0 0 0 0 0 0 0 0 0 0 0 0 0 0 0 0 0 0 0 0 0 0 0 0 0 0 0 0 0 0 0 0 0 0 0 0 0 0 0 0 0 0 0 0 0 0 0 0 0 0 0 0 0 0 0 0 0 0 0 0 0 0 0 0 0 0 0 0 0 0 0 0 0 0 0 0 0 0 0 0 0 0 0 0 0 0 0 0 0 0 0 0 0 0 0 0 0 0 0 0 0 0 0 0 0 0 0 0 0 0 0 0 0 0 0 0 0 0 0 0 0 0 0 0 0 0 0 0 0 0 0 0 0 0 0 0 0 0 0 0 0 0 0 0 0 0 0 0 0 0 0 0 0 0 0 0 0 0 0 0 0 0 0 0 0 0 0 0 0 0 0 0 0 0 0 0 0 0 0 0 0 0 0 0 0 0 0 0 0 0 0 0 0 0 0 0 0 0 0 0 0 0 0 0 0 0 0 0 0 0 0 0 0 0 0 0 0 0 0 0 0 0 0 0 0 0 0 0 0 0 0 0 0 0 0 0 0 0 0 0 0 0 0 0 0 0 0 0 0 0 0 0 0 0 0 0 0 0 0 0 0 0 0 0 0 0 0 0 0 0 0 0 0 0 0 0 0 
</DataArray>
<DataArray Name="Strain_33" format="ascii" type="Float64">
0.0029975 0.00897975 0.0149237 0.020804 0.0265952 0.0322725 0.0378112 0.0431882 0.0483802 0.0533653 0.0581217 0.0626292 0.0031065 0.0093065 0.0154668 0.0215605 0.027562 0.0334457 0.0391862 0.0447587 0.0501395 0.0553058 0.0602353 0.0649067 0.0032155 0.00963325 0.0160097 0.0223173 0.0285293 0.0346192 0.0405612 0.0463293 0.0518988 0.0572462 0.0623487 0.0671843 0.0668688 0.0708215 0.074471 0.0778018 0.0807995 0.0834513 0.0857455 0.0876725 0.0892242 0.090394 0.0911762 0.0915682 0.0693003 0.0733967 0.077179 0.080631 0.0837377 0.0864858 0.0888635 0.0908607 0.0924688 0.093681 0.094492 0.0948983 0.0717317 0.075972 0.079887 0.0834602 0.086676 0.0895203 0.0919815 0.094049 0.0957135 0.096968 0.0978075 0.0982283 0.0915682 0.0911763 0.090394 0.0892242 0.0876725 0.0857455 0.0834513 0.0807995 0.0778018 0.074471 0.0708215 0.0668688 0.0948982 0.094492 0.093681 0.0924687 0.0908608 0.0888635 0.0864858 0.0837377 0.080631 0.077179 0.0733968 0.0693003 0.0982283 0.0978075 0.096968 0.0957135 0.094049 0.0919815 0.0895202 0.086676 0.0834602 0.079887 0.075972 0.0717317 0.0626292 0.0581217 0.0533652 0.0483802 0.0431882 0.0378112 0.0322725 0.0265952 0.020804 0.0149237 0.00897975 0.0029975 0.0649067 0.0602352 0.0553058 0.0501395 0.0447587 0.0391862 0.0334457 0.027562 0.0215605 0.0154668 0.0093065 0.0031065 0.0671843 0.0623487 0.0572462 0.0518988 0.0463293 0.0405613 0.0346192 0.0285292 0.0223173 0.0160097 0.00963325 0.0032155 -0.0029975 -0.00897975 -0.0149237 -0.020804 -0.0265952 -0.0322725 -0.0378112 -0.0431882 -0.0483802 -0.0533653 -0.0581217 -0.0626292 -0.0031065 -0.0093065 -0.0154668 -0.0215605 -0.027562 -0.0334457 -0.0391862 -0.0447587 -0.0501395 -0.0553058 -0.0602353 -0.0649067 -0.0032155 -0.00963325 -0.0160097 -0.0223173 -0.0285293 -0.0346192 -0.0405612 -0.0463293 -0.0518988 -0.0572462 -0.0623487 -0.0671843 -0.0668688 -0.0708215 -0.074471 -0.0778018 -0.0807995 -0.0834513 -0.0857455 -0.0876725 -0.0892242 -0.090394 -0.0911762 -0.0915682 -0.0693003 -0.0733967 -0.077179 -0.080631 -0.0837377 -0.0864858 -0.0888635 -0.0908607 -0.0924688 -0.093681 -0.094492 -0.0948983 -0.0717317 -0.075972 -0.079887 -0.0834602 -0.086676 -0.0895203 -0.0919815 -0.094049 -0.0957135 -0.096968 -0.0978075 -0.0982283 -0.0915682 -0.0911763 -0.090394 -0.0892242 -0.0876725 -0.0857455 -0.0834513 -0.0807995 -0.0778018 -0.074471 -0.0708215 -0.0668688 -0.0948982 -0.094492 -0.093681 -0.0924687 -0.0908608 -0.0888635 -0.0864858 -0.0837377 -0.080631 -0.077179 -0.0733968 -0.0693003 -0.0982283 -0.0978075 -0.096968 -0.0957135 -0.094049 -0.0919815 -0.0895202 -0.086676 -0.0834602 -0.079887 -0.075972 -0.0717317 -0.0626292 -0.0581217 -0.0533652 -0.0483802 -0.0431882 -0.0378112 -0.0322725 -0.0265952 -0.020804 -0.0149237 -0.00897975 -0.0029975 -0.0649067 -0.0602352 -0.0553058 -0.0501395 -0.0447587 -0.0391862 -0.0334457 -0.027562 -0.0215605 -0.0154668 -0.0093065 -0.0031065 -0.0671843 -0.0623487 -0.0572462 -0.0518988 -0.0463293 -0.0405613 -0.0346192 -0.0285292 -0.0223173 -0.0160097 -0.00963325 -0.0032155 
</DataArray>
<DataArray Name="Stress_11" format="ascii" type="Float64">
6104.03 5465.95 4832.84 4205.62 3588.19 2983.1 2393.02 1820.38 1267.75 737.393 231.604 -247.408 6095.12 5435.69 4779.32 4131.48 3493.24 2867.47 2256.93 1664.27 1091.94 542.434 18.0837 -478.853 6082.72 5401.94 4725.82 4056.47 3397.18 2750.63 2119.58 1506.75 914.794 346.157 -196.717 -711.424 -697.702 -1117.28 -1504.49 -1857.65 -2175.34 -2456.26 -2699.18 -2903.14 -3067.34 -3191.08 -3273.8 -3315.26 -946.228 -1382.03 -1784.41 -2151.68 -2482.26 -2774.6 -3027.62 -3240.15 -3411.24 -3540.25 -3626.53 -3669.78 -1195.74 -1647.54 -2064.95 -2446.06 -2789.21 -3092.86 -3355.73 -3576.61 -3754.48 -3888.57 -3978.33 -4023.31 -3315.26 -3273.8 -3191.08 -3067.34 -2903.14 -2699.18 -2456.26 -2175.34 -1857.65 -1504.49 -1117.28 -697.702 -3669.78 -3626.53 -3540.25 -3411.24 -3240.15 -3027.62 -2774.6 -2482.26 -2151.68 -1784.41 -1382.03 -946.228 -4023.31 -3978.33 -3888.57 -3754.48 -3576.61 -3355.73 -3092.86 -2789.21 -2446.06 -2064.95 -1647.54 -1195.74 -247.408 231.604 737.393 1267.75 1820.38 2393.02 2983.1 3588.19 4205.62 4832.84 5465.95 6104.03 -478.853 18.0837 542.434 1091.94 1664.27 2256.93 2867.47 3493.24 4131.48 4779.32 5435.69 6095.12 -711.424 -196.717 346.157 914.794 1506.75 2119.58 2750.63 3397.18 4056.47 4725.82 5401.94 6082.72 6.92702 7.5416 8.15529 8.76097 9.35743 9.94245 10.5138 11.0695 11.6071 12.1246 12.6199 13.0908 6.74664 7.4122 8.06751 8.71746 9.35724 9.98439 10.5961 11.1896 11.7626 12.3124 12.8367 13.3334 6.58773 7.2881 7.98711 8.67818 9.35896 10.0259 10.676 11.3059 11.9128 12.494 13.0469 13.5692 13.5352 13.9509 14.3361 14.6889 15.0075 15.2902 15.5354 15.742 15.9086 16.0345 16.1187 16.161 13.8002 14.2352 14.6366 15.0028 15.3322 15.6234 15.8752 16.0867 16.2569 16.3852 16.471 16.514 14.0587 14.5135 14.932 15.3125 15.6538 15.9547 16.2143 16.4317 16.6064 16.7379 16.8257 16.8697 16.161 16.1187 16.0345 15.9086 15.742 15.5354 15.2902 15.0075 14.6889 14.3361 13.9509 13.5352 16.514 16.471 16.3852 16.2569 16.0867 15.8752 15.6234 15.3322 15.0028 14.6366 14.2352 13.8002 16.8697 16.8257 16.7379 16.6064 16.4317 16.2143 15.9547 15.6538 15.3125 14.932 14.5135 14.0587 13.0908 12.6199 12.1246 11.6071 11.0695 10.5138 9.94245 9.35743 8.76097 8.15529 7.5416 6.92702 13.3334 12.8367 12.3124 11.7626 11.1896 10.5961 9.98439 9.35724 8.71746 8.06751 7.4122 6.74664 13.5692 13.0469 12.494 11.9128 11.3059 10.676 10.0259 9.35896 8.67818 7.98711 7.2881 6.58773 
</DataArray>
<DataArray Name="Stress_22" format="ascii" type="Float64">
6112.31 5468.03 4836.88 4211.07 3594.77 2990.27 2400.43 1827.45 1273.99 742.339 234.729 -246.533 6101.32 5433.22 4778.66 4130.83 3492.27 2866.43 2255.73 1663.01 1090.7 541.171 16.9044 -479.936 6090.56 5397.92 4721.73 4050.92 3390.54 2743.25 2112.01 1499.41 908.191 340.815 -200.352 -712.897 -699.462 -1121.98 -1512.31 -1868.73 -2189.68 -2473.73 -2719.59 -2926.15 -3092.56 -3218.03 -3301.95 -3344 -947.183 -1382.81 -1785.04 -2152.09 -2482.43 -2774.65 -3027.44 -3239.81 -3410.76 -3539.64 -3625.88 -3669.06 -1194.67 -1643.67 -2058.01 -2436 -2776.01 -3076.6 -3336.62 -3554.97 -3730.71 -3863.11 -3951.71 -3996.12 -3344 -3301.95 -3218.03 -3092.56 -2926.15 -2719.59 -2473.73 -2189.68 -1868.73 -1512.31 -1121.98 -699.462 -3669.06 -3625.88 -3539.64 -3410.76 -3239.81 -3027.44 -2774.65 -2482.43 -2152.09 -1785.04 -1382.81 -947.183 -3996.12 -3951.71 -3863.11 -3730.71 -3554.97 -3336.62 -3076.6 -2776.01 -2436 -2058.01 -1643.67 -1194.67 -246.533 234.729 742.339 1273.99 1827.45 2400.43 2990.27 3594.77 4211.07 4836.88 5468.03 6112.31 -479.936 16.9044 541.171 1090.7 1663.01 2255.73 2866.43 3492.27 4130.83 4778.66 5433.22 6101.32 -712.897 -200.352 340.815 908.191 1499.41 2112.01 2743.25 3390.54 4050.92 4721.73 5397.92 6090.56 6.77477 7.37913 8.01747 8.64332 9.26079 9.86568 10.4551 11.0265 11.577 12.1043 12.6059 13.0798 6.76832 7.41916 8.07094 8.71726 9.35326 9.97696 10.5857 11.1768 11.7478 12.2963 12.82 13.3165 6.76061 7.45245 8.12378 8.79129 9.44786 10.0921 10.7214 11.3333 11.9255 12.4956 13.0413 13.5601 13.524 13.9367 14.3164 14.6617 14.9714 15.2445 15.4801 15.6774 15.836 15.9553 16.035 16.0749 13.7837 14.2195 14.6222 14.9899 15.321 15.6141 15.8677 16.0808 16.2525 16.3819 16.4686 16.5119 14.0496 14.5078 14.9322 15.321 15.6721 15.9836 16.2539 16.4816 16.6652 16.8039 16.8968 16.9434 16.0749 16.035 15.9553 15.836 15.6774 15.4801 15.2445 14.9714 14.6617 14.3164 13.9367 13.524 16.5119 16.4686 16.3819 16.2525 16.0808 15.8677 15.6141 15.321 14.9899 14.6222 14.2195 13.7837 16.9434 16.8968 16.8039 16.6652 16.4816 16.2539 15.9836 15.6721 15.321 14.9322 14.5078 14.0496 13.0798 12.6059 12.1043 11.577 11.0265 10.4551 9.86568 9.26079 8.64332 8.01747 7.37913 6.77477 13.3165 12.82 12.2963 11.7478 11.1768 10.5857 9.97696 9.35326 8.71726 8.07094 7.41916 6.76832 13.5601 13.0413 12.4956 11.9255 11.3333 10.7214 10.0921 9.44786 8.79129 8.12378 7.45245 6.76061 
</DataArray>
<DataArray Name="Stress_12" format="ascii" type="Float64">
-1.50183 0.699571 -1.0773 -1.69748 -2.51075 -3.49738 -4.6111 -5.73341 -6.89273 -7.99522 -8.96937 -9.81483 -0.83199 -0.442054 -0.684027 -0.613772 -0.517643 -0.42897 -0.316141 -0.225823 -0.110839 0.0232406 0.100919 0.2125 0.811067 -1.06955 0.648129 1.21322 2.0095 3.00529 4.07354 5.22787 6.35155 7.42827 8.42753 9.26411 -10.4524 -10.8727 -11.0227 -10.8905 -10.4877 -9.7906 -8.80604 -7.59962 -6.14132 -4.52729 -2.76535 -0.934508 0.297612 0.352008 0.421472 0.424714 0.467219 0.449613 0.39142 0.380541 0.303139 0.220683 0.13755 0.0468659 9.91504 10.3357 10.5114 10.4159 10.036 9.36759 8.47529 7.28517 5.89884 4.36047 2.65946 0.899175 0.934508 2.76535 4.52729 6.14132 7.59962 8.80604 9.7906 10.4877 10.8905 11.0227 10.8727 10.4524 -0.0468659 -0.13755 -0.220683 -0.303139 -0.380541 -0.39142 -0.449613 -0.467219 -0.424714 -0.421472 -0.352008 -0.297612 -0.899175 -2.65946 -4.36047 -5.89884 -7.28517 -8.47529 -9.36759 -10.036 -10.4159 -10.5114 -10.3357 -9.91504 9.81483 8.96937 7.99522 6.89273 5.73341 4.6111 3.49738 2.51075 1.69748 1.0773 -0.699571 1.50183 -0.2125 -0.100919 -0.0232406 0.110839 0.225823 0.316141 0.42897 0.517643 0.613772 0.684027 0.442054 0.83199 -9.26411 -8.42753 -7.42827 -6.35155 -5.22787 -4.07354 -3.00529 -2.0095 -1.21322 -0.648129 1.06955 -0.811067 -0.00903717 0.0100743 0.0153836 0.020783 0.023556 0.0242426 0.0230018 0.0201044 0.0159477 0.010868 0.005228 -0.000546469 -0.00817405 -0.014426 -0.0125386 -0.0129282 -0.0123003 -0.0115359 -0.0104899 -0.0092265 -0.00784288 -0.00638949 -0.00486821 -0.00342238 -0.0100602 -0.0231157 -0.0305337 -0.0351305 -0.0374895 -0.0373944 -0.0352051 -0.0312508 -0.0258729 -0.0195133 -0.0126108 -0.00555463 -0.00612881 -0.0111638 -0.0153915 -0.0185908 -0.0205832 -0.0212978 -0.0207414 -0.0189051 -0.0159993 -0.0121276 -0.00757515 -0.00257186 -0.00205332 -0.000803089 0.000224956 0.00111007 0.00169248 0.00208312 0.00227142 0.00215323 0.00191091 0.00149694 0.00094587 0.000323277 0.00123794 0.00741544 0.0126553 0.0167148 0.0194411 0.020746 0.0205366 0.0190153 0.0162196 0.0123557 0.00775463 0.00263631 0.00257186 0.00757515 0.0121276 0.0159993 0.0189051 0.0207414 0.0212978 0.0205832 0.0185908 0.0153915 0.0111638 0.00612881 -0.000323276 -0.00094587 -0.00149694 -0.00191091 -0.00215323 -0.00227142 -0.00208312 -0.00169248 -0.00111007 -0.000224956 0.000803089 0.00205332 -0.00263631 -0.00775463 -0.0123557 -0.0162196 -0.0190153 -0.0205366 -0.020746 -0.0194411 -0.0167148 -0.0126553 -0.00741544 -0.00123794 0.000546469 -0.005228 -0.010868 -0.0159477 -0.0201044 -0.0230018 -0.0242426 -0.023556 -0.020783 -0.0153836 -0.0100743 0.00903717 0.00342238 0.00486821 0.00638949 0.00784288 0.0092265 0.0104899 0.0115359 0.0123003 0.0129282 0.0125386 0.014426 0.00817405 0.00555463 0.0126108 0.0195133 0.0258729 0.0312508 0.0352051 0.0373944 0.0374895 0.0351305 0.0305337 0.0231157 0.0100602 
</DataArray>
<DataArray Name="Stress_13" format="ascii" type="Float64">
0 0 0 0 0 0 0 0 0 0 0 0 0 0 0 0 0 0 0 0 0 0 0 0 0 0 0 0 0 0 0 0 0 0 0 0 0 0 0 0 0 0 0 0 0 0 0 0 0 0 0 0 0 0 0 0 0 0 0 0 0 0 0 0 0 0 0 0 0 0 0 0 0 0 0 0 0 0 0 0 0 0 0 0 0 0 0 0 0 0 0 0 0 0 0 0 0 0 0 0 0 0 0 0 0 0 0 0 0 0 0 0 0 0 0 0 0 0 0 0 0 0 0 0 0 0 0 0 0 0 0 0 0 0 0 0 0 0 0 0 0 0 0 0 0 0 0 0 0 0 0 0 0 0 0 0 0 0 0 0 0 0 0 0 0 0 0 0 0 0 0 0 0 0 0 0 0 0 0 0 0 0 0 0 0 0 0 0 0 0 0 0 0 0 0 0 0 0 0 0 0 0 0 0 0 0 0 0 0 0 0 0 0 0 0 0 0 0 0 0 0 0 0 0 0 0 0 0 0 0 0 0 0 0 0 0 0 0 0 0 0 0 0 0 0 0 0 0 0 0 0 0 0 0 0 0 0 0 0 0 0 0 0 0 0 0 0 0 0 0 0 0 0 0 0 0 0 0 0 0 0 0 0 0 0 0 0 0 
</DataArray>
<DataArray Name="Stress_23" format="ascii" type="Float64">