<?xml version="1.0"?>
<VTKFile byte_order="LittleEndian" type="UnstructuredGrid" version="0.1">
<UnstructuredGrid>
<Piece NumberOfCells="288" NumberOfPoints="384">
<PointData>
<DataArray Name="Warping_X" format="ascii" type="Float64">
-0 -0 0 0 0 0 0 0 0 0 0 0 0 0 0 0 0 0 0 0 0 0 0 0 0 0 0 0 0 0 0 0 0 0 0 0 0 0 0 0 0 0 0 0 0 0 0 0 0 0 0 0 0 0 0 0 0 0 0 0 0 0 0 0 0 0 0 0 0 0 0 0 0 0 0 0 0 0 0 0 0 0 0 0 0 0 0 0 0 0 0 0 0 0 0 0 0 0 0 0 -0 0 0 0 0 0 0 0 0 0 0 0 0 0 0 0 0 0 0 0 0 0 0 0 0 0 0 0 0 0 0 0 0 0 0 0 0 0 0 0 0 0 0 0 0 0 0 0 0 0 0 0 0 0 0 0 0 0 0 0 0 0 0 0 0 0 0 0 0 0 0 0 0 0 0 0 0 0 0 0 0 0 0 0 0 0 0 0 0 0 0 0 0 0 0 0 0 0 0 0 0 0 0 0 0 0 0 0 -0 0 0 0 0 0 0 0 0 0 0 0 0 0 0 0 0 0 0 0 0 0 0 0 0 0 0 0 0 0 0 0 0 0 0 0 0 0 0 0 0 0 0 0 0 0 0 0 0 0 0 0 0 0 0 0 0 0 0 0 0 0 0 0 0 0 0 0 0 0 0 0 0 0 0 0 0 0 0 0 0 0 0 0 0 0 0 0 0 0 0 0 0 0 0 0 0 0 0 0 0 0 0 0 0 0 0 0 -0 0 0 0 0 0 0 0 0 0 0 0 0 0 0 0 0 0 0 0 0 0 0 0 0 0 0 0 0 0 0 0 0 0 0 0 0 0 0 0 0 0 0 0 0 0 0 0 0 0 0 0 0 0 0 0 0 0 0 0 0 0 0 0 0 0 0 0 
</DataArray>
<DataArray Name="Warping_Y" format="ascii" type="Float64">
0 -0 0 0 0 0 0 0 0 0 0 0 0 0 -0 0 0 0 0 0 0 0 0 0 0 0 0 0 0 0 0 0 0 0 0 0 0 0 0 0 0 0 0 0 0 0 0 0 0 0 0 0 -0 0 0 0 0 0 0 0 0 0 0 0 0 0 0 0 0 0 0 0 0 0 0 0 0 0 0 0 0 0 0 0 0 0 0 0 0 0 0 0 0 0 0 0 0 0 0 0 -0 0 0 0 0 0 0 0 0 0 0 0 0 0 0 0 0 0 0 0 0 0 0 0 0 0 0 0 0 0 0 0 0 0 0 0 0 0 0 0 0 0 0 0 0 0 0 0 0 0 0 0 0 0 0 0 0 0 0 0 0 0 0 0 0 0 0 0 0 0 0 0 0 0 0 0 0 0 0 0 0 0 0 0 0 0 0 0 0 0 0 0 0 0 0 0 0 0 0 0 0 0 0 0 0 0 0 0 0 0 0 0 0 0 0 0 0 0 0 0 -0 0 0 0 0 0 0 0 0 0 0 0 0 0 0 0 0 0 0 0 0 0 0 0 0 0 0 0 0 0 0 0 0 0 0 0 -0 0 0 0 0 0 0 0 0 0 0 0 0 0 0 0 0 0 0 0 0 0 0 0 0 0 0 0 0 0 0 0 0 0 0 0 0 0 0 0 0 0 0 0 0 0 0 0 -0 0 0 0 0 0 0 0 0 0 0 0 0 0 0 0 0 0 0 0 0 0 0 0 0 0 0 0 0 0 0 0 0 0 0 0 0 0 0 0 0 0 0 0 0 0 0 0 0 0 0 0 0 0 0 0 0 0 0 0 0 0 0 0 0 0 0 0 0 0 0 0 0 0 0 0 0 0 0 0 
</DataArray>
<DataArray Name="Warping_Z" format="ascii" type="Float64">
0 0 0 0 0 0 0 0 0 0 0 0 0 0 0 0 0 0 0 0 0 0 0 0 0 0 0 0 0 0 0 0 0 0 0 0 0 0 0 0 0 0 0 0 0 0 0 0 0 0 0 0 0 0 0 0 0 0 0 0 0 0 0 0 0 0 0 0 0 0 0 0 0 0 0 0 0 0 0 0 0 0 0 0 0 0 0 0 0 0 0 0 0 0 0 0 0 0 0 0 0 0 0 0 0 0 0 0 0 0 0 0 0 0 0 0 0 0 0 0 0 0 0 0 0 0 0 0 0 0 0 0 0 0 0 0 0 0 0 0 0 0 0 0 0 0 0 0 0 0 0 0 0 0 0 0 0 0 0 0 0 0 0 0 0 0 0 0 0 0 0 0 0 0 0 0 0 0 0 0 0 0 0 0 0 0 0 0 0 0 0 0 0 0 0 0 0 0 0 0 0 0 0 0 0 0 0 0 0 0 0 0 0 0 0 0 0 0 0 0 0 0 0 0 0 0 0 0 0 0 0 0 0 0 0 0 0 0 0 0 0 0 0 0 0 0 0 0 0 0 0 0 0 0 0 0 0 0 0 0 0 0 0 0 0 0 0 0 0 0 0 0 0 0 0 0 0 0 0 0 0 0 0 0 0 0 0 0 0 0 0 0 0 0 0 0 0 0 0 0 0 0 0 0 0 0 0 0 0 0 0 0 0 0 0 0 0 0 0 0 0 0 0 0 0 0 0 0 0 0 0 0 0 0 0 0 0 0 0 0 0 0 0 0 0 0 0 0 0 0 0 0 0 0 0 0 0 0 0 0 0 0 0 0 0 0 0 0 0 0 0 0 0 0 0 0 0 0 0 0 0 0 0 0 
</DataArray>
</PointData>
<CellData>
<DataArray Name="MaterialId" format="ascii" type="Float64">
1 1 1 1 1 1 1 1 1 1 1 1 1 1 1 1 1 1 1 1 1 1 1 1 1 1 1 1 1 1 1 1 1 1 1 1 1 1 1 1 1 1 1 1 1 1 1 1 1 1 1 1 1 1 1 1 1 1 1 1 1 1 1 1 1 1 1 1 1 1 1 1 1 1 1 1 1 1 1 1 1 1 1 1 1 1 1 1 1 1 1 1 1 1 1 1 1 1 1 1 1 1 1 1 1 1 1 1 1 1 1 1 1 1 1 1 1 1 1 1 1 1 1 1 1 1 1 1 1 1 1 1 1 1 1 1 1 1 1 1 1 1 1 1 2 2 2 2 2 2 2 2 2 2 2 2 2 2 2 2 2 2 2 2 2 2 2 2 2 2 2 2 2 2 2 2 2 2 2 2 2 2 2 2 2 2 2 2 2 2 2 2 2 2 2 2 2 2 2 2 2 2 2 2 2 2 2 2 2 2 2 2 2 2 2 2 2 2 2 2 2 2 2 2 2 2 2 2 2 2 2 2 2 2 2 2 2 2 2 2 2 2 2 2 2 2 2 2 2 2 2 2 2 2 2 2 2 2 2 2 2 2 2 2 2 2 2 2 2 2 2 2 2 2 2 2 2 2 2 2 2 2 2 2 2 2 2 2 
</DataArray>
<DataArray Name="FiberAngle" format="ascii" type="Float64">
0 0 0 0 0 0 0 0 0 0 0 0 0 0 0 0 0 0 0 0 0 0 0 0 0 0 0 0 0 0 0 0 0 0 0 0 0 0 0 0 0 0 0 0 0 0 0 0 0 0 0 0 0 0 0 0 0 0 0 0 0 0 0 0 0 0 0 0 0 0 0 0 0 0 0 0 0 0 0 0 0 0 0 0 0 0 0 0 0 0 0 0 0 0 0 0 0 0 0 0 0 0 0 0 0 0 0 0 0 0 0 0 0 0 0 0 0 0 0 0 0 0 0 0 0 0 0 0 0 0 0 0 0 0 0 0 0 0 0 0 0 0 0 0 0 0 0 0 0 0 0 0 0 0 0 0 0 0 0 0 0 0 0 0 0 0 0 0 0 0 0 0 0 0 0 0 0 0 0 0 0 0 0 0 0 0 0 0 0 0 0 0 0 0 0 0 0 0 0 0 0 0 0 0 0 0 0 0 0 0 0 0 0 0 0 0 0 0 0 0 0 0 0 0 0 0 0 0 0 0 0 0 0 0 0 0 0 0 0 0 0 0 0 0 0 0 0 0 0 0 0 0 0 0 0 0 0 0 0 0 0 0 0 0 0 0 0 0 0 0 0 0 0 0 0 0 0 0 0 0 0 0 0 0 0 0 0 0 
</DataArray>
<DataArray Name="Strain_11" format="ascii" type="Float64">
0 0 0 0 0 0 0 0 0 0 0 0 0 0 0 0 0 0 0 0 0 0 0 0 0 0 0 0 0 0 0 0 0 0 0 0 0 0 0 0 0 0 0 0 0 0 0 0 0 0 0 0 0 0 0 0 0 0 0 0 0 0 0 0 0 0 0 0 0 0 0 0 0 0 0 0 0 0 0 0 0 0 0 0 0 0 0 0 0 0 0 0 0 0 0 0 0 0 0 0 0 0 0 0 0 0 0 0 0 0 0 0 0 0 0 0 0 0 0 0 0 0 0 0 0 0 0 0 0 0 0 0 0 0 0 0 0 0 0 0 0 0 0 0 0 0 0 0 0 0 0 0 0 0 0 0 0 0 0 0 0 0 0 0 0 0 0 0 0 0 0 0 0 0 0 0 0 0 0 0 0 0 0 0 0 0 0 0 0 0 0 0 0 0 0 0 0 0 0 0 0 0 0 0 0 0 0 0 0 0 0 0 0 0 0 0 0 0 0 0 0 0 0 0 0 0 0 0 0 0 0 0 0 0 0 0 0 0 0 0 0 0 0 0 0 0 0 0 0 0 0 0 0 0 0 0 0 0 0 0 0 0 0 0 0 0 0 0 0 0 0 0 0 0 0 0 0 0 0 0 0 0 0 0 0 0 0 0 
</DataArray>
<DataArray Name="Strain_22" format="ascii" type="Float64">
0 0 0 0 0 0 0 0 0 0 0 0 0 0 0 0 0 0 0 0 0 0 0 0 0 0 0 0 0 0 0 0 0 0 0 0 0 0 0 0 0 0 0 0 0 0 0 0 0 0 0 0 0 0 0 0 0 0 0 0 0 0 0 0 0 0 0 0 0 0 0 0 0 0 0 0 0 0 0 0 0 0 0 0 0 0 0 0 0 0 0 0 0 0 0 0 0 0 0 0 0 0 0 0 0 0 0 0 0 0 0 0 0 0 0 0 0 0 0 0 0 0 0 0 0 0 0 0 0 0 0 0 0 0 0 0 0 0 0 0 0 0 0 0 0 0 0 0 0 0 0 0 0 0 0 0 0 0 0 0 0 0 0 0 0 0 0 0 0 0 0 0 0 0 0 0 0 0 0 0 0 0 0 0 0 0 0 0 0 0 0 0 0 0 0 0 0 0 0 0 0 0 0 0 0 0 0 0 0 0 0 0 0 0 0 0 0 0 0 0 0 0 0 0 0 0 0 0 0 0 0 0 0 0 0 0 0 0 0 0 0 0 0 0 0 0 0 0 0 0 0 0 0 0 0 0 0 0 0 0 0 0 0 0 0 0 0 0 0 0 0 0 0 0 0 0 0 0 0 0 0 0 0 0 0 0 0 0 
</DataArray>
<DataArray Name="Strain_12" format="ascii" type="Float64">
0 0 0 0 0 0 0 0 0 0 0 0 0 0 0 0 0 0 0 0 0 0 0 0 0 0 0 0 0 0 0 0 0 0 0 0 0 0 0 0 0 0 0 0 0 0 0 0 0 0 0 0 0 0 0 0 0 0 0 0 0 0 0 0 0 0 0 0 0 0 0 0 0 0 0 0 0 0 0 0 0 0 0 0 0 0 0 0 0 0 0 0 0 0 0 0 0 0 0 0 0 0 0 0 0 0 0 0 0 0 0 0 0 0 0 0 0 0 0 0 0 0 0 0 0 0 0 0 0 0 0 0 0 0 0 0 0 0 0 0 0 0 0 0 0 0 0 0 0 0 0 0 0 0 0 0 0 0 0 0 0 0 0 0 0 0 0 0 0 0 0 0 0 0 0 0 0 0 0 0 0 0 0 0 0 0 0 0 0 0 0 0 0 0 0 0 0 0 0 0 0 0 0 0 0 0 0 0 0 0 0 0 0 0 0 0 0 0 0 0 0 0 0 0 0 0 0 0 0 0 0 0 0 0 0 0 0 0 0 0 0 0 0 0 0 0 0 0 0 0 0 0 0 0 0 0 0 0 0 0 0 0 0 0 0 0 0 0 0 0 0 0 0 0 0 0 0 0 0 0 0 0 0 0 0 0 0 0 
</DataArray>
<DataArray Name="Strain_13" format="ascii" type="Float64">
-76.6727 -73.6599 -70.91 -68.592 -66.7271 -65.3186 -64.3581 -63.8281 -63.7007 -63.9385 -64.5036 -65.3483 -76.4781 -73.4167 -70.7619 -68.5358 -66.7498 -65.4056 -64.4957 -64.0025 -63.8987 -64.1493 -64.7154 -65.5518 -76.2661 -73.1499 -70.5807 -68.4404 -66.7297 -65.4505 -64.5941 -64.1444 -64.074 -64.3473 -64.9277 -65.7708 -66.4199 -67.6641 -69.0256 -70.4467 -71.8721 -73.2515 -74.5338 -75.6755 -76.6371 -77.3875 -77.9017 -78.1629 -66.6073 -67.8287 -69.1619 -70.5528 -71.9468 -73.2936 -74.5458 -75.6595 -76.598 -77.3298 -77.8313 -78.0859 -66.826 -68.0406 -69.3624 -70.7394 -72.1177 -73.447 -74.6815 -75.7797 -76.7045 -77.4253 -77.9189 -78.1697 -78.1629 -77.9017 -77.3875 -76.6371 -75.6755 -74.5338 -73.2515 -71.8721 -70.4467 -69.0256 -67.6641 -66.4199 -78.0859 -77.8313 -77.3298 -76.598 -75.6595 -74.5458 -73.2936 -71.9468 -70.5528 -69.1619 -67.8287 -66.6073 -78.1697 -77.9189 -77.4253 -76.7045 -75.7797 -74.6815 -73.447 -72.1177 -70.7394 -69.3624 -68.0406 -66.826 -65.3483 -64.5036 -63.9385 -63.7007 -63.8281 -64.3581 -65.3186 -66.7271 -68.592 -70.91 -73.6599 -76.6727 -65.5518 -64.7154 -64.1493 -63.8987 -64.0025 -64.4957 -65.4056 -66.7498 -68.5358 -70.7619 -73.4167 -76.4781 -65.7708 -64.9277 -64.3473 -64.074 -64.1444 -64.5941 -65.4505 -66.7297 -68.4404 -70.5807 -73.1499 -76.2661 90.7328 86.2487 80.6051 73.998 66.5502 58.3516 49.5025 40.1186 30.3276 20.2807 10.083 -0.124345 85.4167 80.9505 75.5038 69.1432 61.9629 54.0529 45.5116 36.45 26.9936 17.2787 7.42121 -2.44805 80.491 76.0275 70.7554 64.5982 57.6537 49.9952 41.7208 32.9334 23.7599 14.3371 4.77115 -4.81211 -10.1962 -19.9975 -29.4007 -38.2696 -46.4836 -53.9431 -60.5359 -66.1758 -70.7815 -74.2933 -76.6617 -77.8532 -12.1901 -21.6712 -30.764 -39.3483 -47.3007 -54.5173 -60.8997 -66.3571 -70.8171 -74.2166 -76.5094 -77.6629 -14.2729 -23.4779 -32.3078 -40.6485 -48.3782 -55.3893 -61.5888 -66.8943 -71.2298 -74.5338 -76.7616 -77.8832 -77.8532 -76.6617 -74.2933 -70.7815 -66.1758 -60.5359 -53.9431 -46.4836 -38.2696 -29.4007 -19.9975 -10.1962 -77.6629 -76.5094 -74.2166 -70.8171 -66.3571 -60.8997 -54.5173 -47.3007 -39.3483 -30.764 -21.6712 -12.1901 -77.8832 -76.7616 -74.5338 -71.2298 -66.8943 -61.5888 -55.3893 -48.3782 -40.6485 -32.3078 -23.4779 -14.2729 -0.124345 10.083 20.2807 30.3276 40.1186 49.5025 58.3516 66.5502 73.998 80.6051 86.2487 90.7328 -2.44805 7.42121 17.2787 26.9936 36.45 45.5116 54.0529 61.9629 69.1432 75.5038 80.9505 85.4167 -4.81211 4.77115 14.3371 23.7599 32.9334 41.7208 49.9952 57.6537 64.5982 70.7554 76.0275 80.491 
</DataArray>
<DataArray Name="Strain_23" format="ascii" type="Float64">
0.00934185 0.528536 1.28621 2.31811 3.55233 4.91534 6.33375 7.74 9.06886 10.2665 11.2832 12.0758 -0.0298241 0.590348 1.34931 2.36097 3.56726 4.89521 6.27536 7.64086 8.93106 10.0917 11.0741 11.8384 0.02628 0.575258 1.33409 2.34811 3.54771 4.8625 6.22378 7.56772 8.83592 9.97463 10.9354 11.6811 12.6123 12.8691 12.8302 12.4897 11.8543 10.9337 9.74753 8.3235 6.69565 4.904 2.99142 1.00539 12.3534 12.5956 12.5498 12.2114 11.5851 10.6819 9.52043 8.12768 6.53728 4.78744 2.92021 0.981396 12.1819 12.4144 12.3636 12.025 11.4048 10.5129 9.36739 7.99562 6.42997 4.70865 2.87201 0.965063 -1.00539 -2.99142 -4.904 -6.69565 -8.3235 -9.74753 -10.9337 -11.8543 -12.4897 -12.8302 -12.8691 -12.6123 -0.981396 -2.92021 -4.78744 -6.53728 -8.12768 -9.52043 -10.6819 -11.5851 -12.2114 -12.5498 -12.5956 -12.3534 -0.965063 -2.87201 -4.70865 -6.42997 -7.99562 -9.36739 -10.5129 -11.4048 -12.025 -12.3636 -12.4144 -12.1819 -12.0758 -11.2832 -10.2665 -9.06886 -7.74 -6.33375 -4.91534 -3.55233 -2.31811 -1.28621 -0.528536 -0.00934185 -11.8384 -11.0741 -10.0917 -8.93106 -7.64086 -6.27536 -4.89521 -3.56726 -2.36097 -1.34931 -0.590348 0.0298241 -11.6811 -10.9354 -9.97463 -8.83592 -7.56772 -6.22378 -4.8625 -3.54771 -2.34811 -1.33409 -0.575258 -0.02628 5.56111 16.0833 26.0902 35.3556 43.767 51.2444 57.7026 63.0787 67.3049 70.3652 72.2347 72.8926 5.42039 15.4926 25.1585 34.1227 42.2686 49.5076 55.7626 60.9665 65.0731 68.0452 69.858 70.5029 5.22548 15.0877 24.4738 33.1733 41.0882 48.1174 54.1905 59.2453 63.2407 66.136 67.8954 68.5228 72.3541 70.6444 67.7969 63.8642 58.9342 53.0774 46.3878 38.9749 30.9562 22.4606 13.6161 4.56214 69.9912 68.3444 65.5939 61.7975 57.0284 51.3638 44.8923 37.7189 29.9606 21.7388 13.1792 4.41569 68.031 66.4348 63.764 60.073 55.441 49.9368 43.6447 36.6719 29.1287 21.1368 12.8147 4.29311 -4.56214 -13.6161 -22.4606 -30.9562 -38.9749 -46.3878 -53.0774 -58.9342 -63.8642 -67.7969 -70.6444 -72.3541 -4.41569 -13.1792 -21.7388 -29.9606 -37.7189 -44.8923 -51.3638 -57.0284 -61.7975 -65.5939 -68.3444 -69.9912 -4.29311 -12.8147 -21.1368 -29.1287 -36.6719 -43.6447 -49.9368 -55.441 -60.073 -63.764 -66.4348 -68.031 -72.8926 -72.2347 -70.3652 -67.3049 -63.0787 -57.7026 -51.2444 -43.767 -35.3556 -26.0902 -16.0833 -5.56111 -70.5029 -69.858 -68.0452 -65.0731 -60.9665 -55.7626 -49.5076 -42.2686 -34.1227 -25.1585 -15.4926 -5.42039 -68.5228 -67.8954 -66.136 -63.2407 -59.2453 -54.1905 -48.1174 -41.0882 -33.1733 -24.4738 -15.0877 -5.22548 
</DataArray>
<DataArray Name="Strain_33" format="ascii" type="Float64">
0 0 0 0 0 0 0 0 0 0 0 0 0 0 0 0 0 0 0 0 0 0 0 0 0 0 0 0 0 0 0 0 0 0 0 0 0 0 0 0 0 0 0 0 0 0 0 0 0 0 0 0 0 0 0 0 0 0 0 0 0 0 0 0 0 0 0 0 0 0 0 0 0 0 0 0 0 0 0 0 0 0 0 0 0 0 0 0 0 0 0 0 0 0 0 0 0 0 0 0 0 0 0 0 0 0 0 0 0 0 0 0 0 0 0 0 0 0 0 0 0 0 0 0 0 0 0 0 0 0 0 0 0 0 0 0 0 0 0 0 0 0 0 0 0 0 0 0 0 0 0 0 0 0 0 0 0 0 0 0 0 0 0 0 0 0 0 0 0 0 0 0 0 0 0 0 0 0 0 0 0 0 0 0 0 0 0 0 0 0 0 0 0 0 0 0 0 0 0 0 0 0 0 0 0 0 0 0 0 0 0 0 0 0 0 0 0 0 0 0 0 0 0 0 0 0 0 0 0 0 0 0 0 0 0 0 0 0 0 0 0 0 0 0 0 0 0 0 0 0 0 0 0 0 0 0 0 0 0 0 0 0 0 0 0 0 0 0 0 0 0 0 0 0 0 0 0 0 0 0 0 0 0 0 0 0 0 0 
</DataArray>
<DataArray Name="Stress_11" format="ascii" type="Float64">
0 0 0 0 0 0 0 0 0 0 0 0 0 0 0 0 0 0 0 0 0 0 0 0 0 0 0 0 0 0 0 0 0 0 0 0 0 0 0 0 0 0 0 0 0 0 0 0 0 0 0 0 0 0 0 0 0 0 0 0 0 0 0 0 0 0 0 0 0 0 0 0 0 0 0 0 0 0 0 0 0 0 0 0 0 0 0 0 0 0 0 0 0 0 0 0 0 0 0 0 0 0 0 0 0 0 0 0 0 0 0 0 0 0 0 0 0 0 0 0 0 0 0 0 0 0 0 0 0 0 0 0 0 0 0 0 0 0 0 0 0 0 0 0 0 0 0 0 0 0 0 0 0 0 0 0 0 0 0 0 0 0 0 0 0 0 0 0 0 0 0 0 0 0 0 0 0 0 0 0 0 0 0 0 0 0 0 0 0 0 0 0 0 0 0 0 0 0 0 0 0 0 0 0 0 0 0 0 0 0 0 0 0 0 0 0 0 0 0 0 0 0 0 0 0 0 0 0 0 0 0 0 0 0 0 0 0 0 0 0 0 0 0 0 0 0 0 0 0 0 0 0 0 0 0 0 0 0 0 0 0 0 0 0 0 0 0 0 0 0 0 0 0 0 0 0 0 0 0 0 0 0 0 0 0 0 0 0 
</DataArray>
<DataArray Name="Stress_22" format="ascii" type="Float64">
0 0 0 0 0 0 0 0 0 0 0 0 0 0 0 0 0 0 0 0 0 0 0 0 0 0 0 0 0 0 0 0 0 0 0 0 0 0 0 0 0 0 0 0 0 0 0 0 0 0 0 0 0 0 0 0 0 0 0 0 0 0 0 0 0 0 0 0 0 0 0 0 0 0 0 0 0 0 0 0 0 0 0 0 0 0 0 0 0 0 0 0 0 0 0 0 0 0 0 0 0 0 0 0 0 0 0 0 0 0 0 0 0 0 0 0 0 0 0 0 0 0 0 0 0 0 0 0 0 0 0 0 0 0 0 0 0 0 0 0 0 0 0 0 0 0 0 0 0 0 0 0 0 0 0 0 0 0 0 0 0 0 0 0 0 0 0 0 0 0 0 0 0 0 0 0 0 0 0 0 0 0 0 0 0 0 0 0 0 0 0 0 0 0 0 0 0 0 0 0 0 0 0 0 0 0 0 0 0 0 0 0 0 0 0 0 0 0 0 0 0 0 0 0 0 0 0 0 0 0 0 0 0 0 0 0 0 0 0 0 0 0 0 0 0 0 0 0 0 0 0 0 0 0 0 0 0 0 0 0 0 0 0 0 0 0 0 0 0 0 0 0 0 0 0 0 0 0 0 0 0 0 0 0 0 0 0 0 
</DataArray>
<DataArray Name="Stress_12" format="ascii" type="Float64">
0 0 0 0 0 0 0 0 0 0 0 0 0 0 0 0 0 0 0 0 0 0 0 0 0 0 0 0 0 0 0 0 0 0 0 0 0 0 0 0 0 0 0 0 0 0 0 0 0 0 0 0 0 0 0 0 0 0 0 0 0 0 0 0 0 0 0 0 0 0 0 0 0 0 0 0 0 0 0 0 0 0 0 0 0 0 0 0 0 0 0 0 0 0 0 0 0 0 0 0 0 0 0 0 0 0 0 0 0 0 0 0 0 0 0 0 0 0 0 0 0 0 0 0 0 0 0 0 0 0 0 0 0 0 0 0 0 0 0 0 0 0 0 0 0 0 0 0 0 0 0 0 0 0 0 0 0 0 0 0 0 0 0 0 0 0 0 0 0 0 0 0 0 0 0 0 0 0 0 0 0 0 0 0 0 0 0 0 0 0 0 0 0 0 0 0 0 0 0 0 0 0 0 0 0 0 0 0 0 0 0 0 0 0 0 0 0 0 0 0 0 0 0 0 0 0 0 0 0 0 0 0 0 0 0 0 0 0 0 0 0 0 0 0 0 0 0 0 0 0 0 0 0 0 0 0 0 0 0 0 0 0 0 0 0 0 0 0 0 0 0 0 0 0 0 0 0 0 0 0 0 0 0 0 0 0 0 0 
</DataArray>
<DataArray Name="Stress_13" format="ascii" type="Float64">
-3194.72 -3069.19 -2954.61 -2858.02 -2780.32 -2721.63 -2681.61 -2659.52 -2654.22 -2664.12 -2687.67 -2722.87 -3186.61 -3059.05 -2948.43 -2855.68 -2781.26 -2725.26 -2687.34 -2666.79 -2662.47 -2672.91 -2696.5 -2731.35 -3177.78 -3047.94 -2940.88 -2851.71 -2780.43 -2727.13 -2691.44 -2672.71 -2669.77 -2681.16 -2705.34 -2740.47 -2767.52 -2819.36 -2876.09 -2935.3 -2994.69 -3052.17 -3105.6 -3153.17 -3193.24 -3224.51 -3245.93 -3256.81 -2775.33 -2826.22 -2881.77 -2939.72 -2997.81 -3053.93 -3106.1 -3152.51 -3191.61 -3222.1 -3243 -3253.61 -2784.44 -2835.05 -2890.12 -2947.5 -3004.93 -3060.32 -3111.75 -3157.51 -3196.05 -3226.08 -3246.65 -3257.1 -3256.81 -3245.93 -3224.51 -3193.24 -3153.17 -3105.6 -3052.17 -2994.69 -2935.3 -2876.09 -2819.36 -2767.52 -3253.61 -3243 -3222.1 -3191.61 -3152.51 -3106.1 -3053.93 -2997.81 -2939.72 -2881.77 -2826.22 -2775.33 -3257.1 -3246.65 -3226.08 -3196.05 -3157.51 -3111.75 -3060.32 -3004.93 -2947.5 -2890.12 -2835.05 -2784.44 -2722.87 -2687.67 -2664.12 -2654.22 -2659.52 -2681.61 -2721.63 -2780.32 -2858.02 -2954.61 -3069.19 -3194.72 -2731.35 -2696.5 -2672.91 -2662.47 -2666.79 -2687.34 -2725.26 -2781.26 -2855.68 -2948.43 -3059.05 -3186.61 -2740.47 -2705.34 -2681.16 -2669.77 -2672.71 -2691.44 -2727.13 -2780.43 -2851.71 -2940.88 -3047.94 -3177.78 3.78056 3.59372 3.35857 3.08327 2.77295 2.43134 2.06262 1.67162 1.26366 0.845035 0.420127 -0.00518108 3.55906 3.37296 3.14602 2.88099 2.58181 2.25222 1.89633 1.51876 1.12474 0.719953 0.30922 -0.102003 3.35382 3.16784 2.94816 2.69161 2.40226 2.08315 1.73838 1.37224 0.990005 0.597385 0.198799 -0.200506 -0.424847 -0.833237 -1.22504 -1.59458 -1.93683 -2.24765 -2.52235 -2.75735 -2.94925 -3.09558 -3.19426 -3.24391 -0.507925 -0.902972 -1.28184 -1.63953 -1.97088 -2.27157 -2.53751 -2.7649 -2.95074 -3.09238 -3.18792 -3.23598 -0.594708 -0.978254 -1.34617 -1.6937 -2.01578 -2.30791 -2.56622 -2.78728 -2.96793 -3.1056 -3.19843 -3.24516 -3.24391 -3.19426 -3.09558 -2.94925 -2.75735 -2.52235 -2.24765 -1.93683 -1.59458 -1.22504 -0.833237 -0.424847 -3.23598 -3.18792 -3.09238 -2.95074 -2.7649 -2.53751 -2.27157 -1.97088 -1.63953 -1.28184 -0.902972 -0.507925 -3.24516 -3.19843 -3.1056 -2.96793 -2.78728 -2.56622 -2.30791 -2.01578 -1.6937 -1.34617 -0.978254 -0.594708 -0.00518108 0.420127 0.845035 1.26366 1.67162 2.06262 2.43134 2.77295 3.08327 3.35857 3.59372 3.78056 -0.102003 0.30922 0.719953 1.12474 1.51876 1.89633 2.25222 2.58181 2.88099 3.14602 3.37296 3.55906 -0.200506 0.198799 0.597385 0.990005 1.37224 1.73838 2.08315 2.40226 2.69161 2.94816 3.16784 3.35382 
</DataArray>
<DataArray Name="Stress_23" format="ascii" type="Float64">
0.389247 22.0225 53.5926 96.5889 148.015 204.807 263.908 322.503 377.872 427.773 470.137 503.161 -1.24268 24.598 56.2217 98.3744 148.637 203.969 261.475 318.372 372.13 420.491 461.425 493.272 1.09501 23.9693 55.5875 97.8385 147.822 202.606 259.326 315.324 368.166 415.613 455.647 486.718 525.517 536.217 534.598 520.408 493.935 455.576 406.15 346.815 278.988 204.335 124.644 41.8916 514.728 524.822 522.914 508.813 482.717 445.081 396.688 338.656 272.389 199.478 121.676 40.8918 507.585 517.272 515.154 501.045 475.205 438.043 390.311 333.154 267.917 196.195 119.668 40.2113 -41.8916 -124.644 -204.335 -278.988 -346.815 -406.15 -455.576 -493.935 -520.408 -534.598 -536.217 -525.517 -40.8918 -121.676 -199.478 -272.389 -338.656 -396.688 -445.081 -482.717 -508.813 -522.914 -524.822 -514.728 -40.2113 -119.668 -196.195 -267.917 -333.154 -390.311 -438.043 -475.205 -501.045 -515.154 -517.272 -507.585 -503.161 -470.137 -427.773 -377.872 -322.503 -263.908 -204.807 -148.015 -96.5889 -53.5926 -22.0225 -0.389247 -493.272 -461.425 -420.491 -372.13 -318.372 -261.475 -203.969 -148.637 -98.3744 -56.2217 -24.598 1.24268 -486.718 -455.647 -415.613 -368.166 -315.324 -259.326 -202.606 -147.822 -97.8385 -55.5875 -23.9693 -1.09501 0.231715 0.670143 1.0871 1.47316 1.82364 2.1352 2.4043 2.6283 2.80439 2.93191 3.0098 3.03722 0.225851 0.645531 1.04828 1.42179 1.76121 2.06283 2.32346 2.54029 2.7114 2.83524 2.91077 2.93764 0.21773 0.628658 1.01975 1.38223 1.71202 2.00491 2.25795 2.46857 2.63505 2.75569 2.829 2.85514 3.01478 2.94354 2.8249 2.66103 2.45561 2.21158 1.93284 1.62397 1.28985 0.935865 0.567342 0.190091 2.91632 2.84771 2.7331 2.57491 2.3762 2.14018 1.87053 1.57163 1.24837 0.905789 0.549138 0.183989 2.83465 2.76814 2.65685 2.50306 2.31006 2.08072 1.81854 1.52801 1.21371 0.880707 0.533948 0.178881 -0.190091 -0.567342 -0.935865 -1.28985 -1.62397 -1.93284 -2.21158 -2.45561 -2.66103 -2.8249 -2.94354 -3.01478 -0.183989 -0.549138 -0.905789 -1.24837 -1.57163 -1.87053 -2.14018 -2.3762 -2.57491 -2.7331 -2.84771 -2.91632 -0.178881 -0.533948 -0.880707 -1.21371 -1.52801 -1.81854 -2.08072 -2.31006 -2.50306 -2.65685 -2.76814 -2.83465 -3.03722 -3.0098 -2.93191 -2.80439 -2.6283 -2.4043 -2.1352 -1.82364 -1.47316 -1.0871 -0.670143 -0.231715 -2.93764 -2.91077 -2.83524 -2.7114 -2.54029 -2.32346 -2.06283 -1.76121 -1.42179 -1.04828 -0.645531 -0.225851 -2.85514 -2.829 -2.75569 -2.63505 -2.46857 -2.25795 -2.00491 -1.71202 -1.38223 -1.01975 -0.628658 -0.21773 
</DataArray>
<DataArray Name="Stress_33" format="ascii" type="Float64">
0 0 0 0 0 0 0 0 0 0 0 0 0 0 0 0 0 0 0 0 0 0 0 0 0 0 0 0 0 0 0 0 0 0 0 0 0 0 0 0 0 0 0 0 0 0 0 0 0 0 0 0 0 0 0 0 0 0 0 0 0 0 0 0 0 0 0 0 0 0 0 0 0 0 0 0 0 0 0 0 0 0 0 0 0 0 0 0 0 0 0 0 0 0 0 0 0 0 0 0 0 0 0 0 0 0 0 0 0 0 0 0 0 0 0 0 0 0 0 0 0 0 0 0 0 0 0 0 0 0 0 0 0 0 0 0 0 0 0 0 0 0 0 0 0 0 0 0 0 0 0 0 0 0 0 0 0 0 0 0 0 0 0 0 0 0 0 0 0 0 0 0 0 0 0 0 0 0 0 0 0 0 0 0 0 0 0 0 0 0 0 0 0 0 0 0 0 0 0 0 0 0 0 0 0 0 0 0 0 0 0 0 0 0 0 0 0 0 0 0 0 0 0 0 0 0 0 0 0 0 0 0 0 0 0 0 0 0 0 0 0 0 0 0 0 0 0 0 0 0 0 0 0 0 0 0 0 0 0 0 0 0 0 0 0 0 0 0 0 0 0 0 0 0 0 0 0 0 0 0 0 0 0 0 0 0 0 0 
</DataArray>
</CellData>
<Points>
<DataArray NumberOfComponents="3" format="ascii" type="Float64">
0 0.09 0 -0.06364 0.06364 0 -0.005886 0.089807 0 -0.011747 0.08923 0 -0.017558 0.088271 0 -0.023294 0.086933 0 -0.02893 0.085224 0 -0.034442 0.083149 0 -0.039806 0.080719 0 -0.045 0.077942 0 -0.050001 0.074832 0 -0.054789 0.071402 0 -0.059341 0.067666 0 -0.065997 0.065997 0 0 0.093333 0 -0.006104 0.093133 0 -0.012182 0.092535 0 -0.018208 0.09154 0 -0.024156 0.090153 0 -0.030001 0.08838 0 -0.035717 0.086229 0 -0.04128 0.083708 0 -0.046667 0.080829 0 -0.051853 0.077604 0 -0.056818 0.074046 0 -0.061539 0.070172 0 -0.068354 0.068354 0 0 0.096667 0 -0.006322 0.09646 0 -0.012618 0.09584 0 -0.018859 0.094809 0 -0.025019 0.093373 0 -0.031072 0.091537 0 -0.036993 0.089308 0 -0.042755 0.086698 0 -0.048333 0.083716 0 -0.053705 0.080375 0 -0.058847 0.076691 0 -0.063737 0.072678 0 -0.070711 0.070711 0 0 0.1 0 -0.00654 0.099786 0 -0.013053 0.099144 0 -0.019509 0.098079 0 -0.025882 0.096593 0 -0.032144 0.094693 0 -0.038268 0.092388 0 -0.044229 0.089687 0 -0.05 0.086603 0 -0.055557 0.083147 0 -0.060876 0.079335 0 -0.065935 0.075184 0 -0.09 0 0 -0.067666 0.059341 0 -0.071402 0.054789 0 -0.074832 0.050001 0 -0.077942 0.045 0 -0.080719 0.039806 0 -0.083149 0.034442 0 -0.085224 0.02893 0 -0.086933 0.023294 0 -0.088271 0.017558 0 -0.08923 0.011747 0 -0.089807 0.005886 0 -0.093333 0 0 -0.070172 0.061539 0 -0.074046 0.056818 0 -0.077604 0.051853 0 -0.080829 0.046667 0 -0.083708 0.04128 0 -0.086229 0.035717 0 -0.08838 0.030001 0 -0.090153 0.024156 0 -0.09154 0.018208 0 -0.092535 0.012182 0 -0.093133 0.006104 0 -0.096667 0 0 -0.072678 0.063737 0 -0.076691 0.058847 0 -0.080375 0.053705 0 -0.083716 0.048333 0 -0.086698 0.042755 0 -0.089308 0.036993 0 -0.091537 0.031072 0 -0.093373 0.025019 0 -0.094809 0.018859 0 -0.09584 0.012618 0 -0.09646 0.006322 0 -0.1 0 0 -0.075184 0.065935 0 -0.079335 0.060876 0 -0.083147 0.055557 0 -0.086603 0.05 0 -0.089687 0.044229 0 -0.092388 0.038268 0 -0.094693 0.032144 0 -0.096593 0.025882 0 -0.098079 0.019509 0 -0.099144 0.013053 0 -0.099786 0.00654 0 -0.06364 -0.06364 0 -0.089807 -0.005886 0 -0.08923 -0.011747 0 -0.088271 -0.017558 0 -0.086933 -0.023294 0 -0.085224 -0.02893 0 -0.083149 -0.034442 0 -0.080719 -0.039806 0 -0.077942 -0.045 0 -0.074832 -0.050001 0 -0.071402 -0.054789 0 -0.067666 -0.059341 0 -0.065997 -0.065997 0 -0.093133 -0.006104 0 -0.092535 -0.012182 0 -0.09154 -0.018208 0 -0.090153 -0.024156 0 -0.08838 -0.030001 0 -0.086229 -0.035717 0 -0.083708 -0.04128 0 -0.080829 -0.046667 0 -0.077604 -0.051853 0 -0.074046 -0.056818 0 -0.070172 -0.061539 0 -0.068354 -0.068354 0 -0.09646 -0.006322 0 -0.09584 -0.012618 0 -0.094809 -0.018859 0 -0.093373 -0.025019 0 -0.091537 -0.031072 0 -0.089308 -0.036993 0 -0.086698 -0.042755 0 -0.083716 -0.048333 0 -0.080375 -0.053705 0 -0.076691 -0.058847 0 -0.072678 -0.063737 0 -0.070711 -0.070711 0 -0.099786 -0.00654 0 -0.099144 -0.013053 0 -0.098079 -0.019509 0 -0.096593 -0.025882 0 -0.094693 -0.032144 0 -0.092388 -0.038268 0 -0.089687 -0.044229 0 -0.086603 -0.05 0 -0.083147 -0.055557 0 -0.079335 -0.060876 0 -0.075184 -0.065935 0 0 -0.09 0 -0.059341 -0.067666 0 -0.054789 -0.071402 0 -0.050001 -0.074832 0 -0.045 -0.077942 0 -0.039806 -0.080719 0 -0.034442 -0.083149 0 -0.02893 -0.085224 0 -0.023294 -0.086933 0 -0.017558 -0.088271 0 -0.011747 -0.08923 0 -0.005886 -0.089807 0 0 -0.093333 0 -0.061539 -0.070172 0 -0.056818 -0.074046 0 -0.051853 -0.077604 0 -0.046667 -0.080829 0 -0.04128 -0.083708 0 -0.035717 -0.086229 0 -0.030001 -0.08838 0 -0.024156 -0.090153 0 -0.018208 -0.09154 0 -0.012182 -0.092535 0 -0.006104 -0.093133 0 0 -0.096667 0 -0.063737 -0.072678 0 -0.058847 -0.076691 0 -0.053705 -0.080375 0 -0.048333 -0.083716 0 -0.042755 -0.086698 0 -0.036993 -0.089308 0 -0.031072 -0.091537 0 -0.025019 -0.093373 0 -0.018859 -0.094809 0 -0.012618 -0.09584 0 -0.006322 -0.09646 0 0 -0.1 0 -0.065935 -0.075184 0 -0.060876 -0.079335 0 -0.055557 -0.083147 0 -0.05 -0.086603 0 -0.044229 -0.089687 0 -0.038268 -0.092388 0 -0.032144 -0.094693 0 -0.025882 -0.096593 0 -0.019509 -0.098079 0 -0.013053 -0.099144 0 -0.00654 -0.099786 0 0.06364 -0.06364 0 0.005886 -0.089807 0 0.011747 -0.08923 0 0.017558 -0.088271 0 0.023294 -0.086933 0 0.02893 -0.085224 0 0.034442 -0.083149 0 0.039806 -0.080719 0 0.045 -0.077942 0 0.050001 -0.074832 0 0.054789 -0.071402 0 0.059341 -0.067666 0 0.065997 -0.065997 0 0.006104 -0.093133 0 0.012182 -0.092535 0 0.018208 -0.09154 0 0.024156 -0.090153 0 0.030001 -0.08838 0 0.035717 -0.086229 0 0.04128 -0.083708 0 0.046667 -0.080829 0 0.051853 -0.077604 0 0.056818 -0.074046 0 0.061539 -0.070172 0 0.068354 -0.068354 0 0.006322 -0.09646 0 0.012618 -0.09584 0 0.018859 -0.094809 0 0.025019 -0.093373 0 0.031072 -0.091537 0 0.036993 -0.089308 0 0.042755 -0.086698 0 0.048333 -0.083716 0 0.053705 -0.080375 0 0.058847 -0.076691 0 0.063737 -0.072678 0 0.070711 -0.070711 0 0.00654 -0.099786 0 0.013053 -0.099144 0 0.019509 -0.098079 0 0.025882 -0.096593 0 0.032144 -0.094693 0 0.038268 -0.092388 0 0.044229 -0.089687 0 0.05 -0.086603 0 0.055557 -0.083147 0 0.060876 -0.079335 0 0.065935 -0.075184 0 0.09 0 0 0.067666 -0.059341 0 0.071402 -0.054789 0 0.074832 -0.050001 0 0.077942 -0.045 0 0.080719 -0.039806 0 0.083149 -0.034442 0 0.085224 -0.02893 0 0.086933 -0.023294 0 0.088271 -0.017558 0 0.08923 -0.011747 0 0.089807 -0.005886 0 0.093333 0 0 0.070172 -0.061539 0 0.074046 -0.056818 0 0.077604 -0.051853 0 0.080829 -0.046667 0 0.083708 -0.04128 0 0.086229 -0.035717 0 0.08838 -0.030001 0 0.090153 -0.024156 0 0.09154 -0.018208 0 0.092535 -0.012182 0 0.093133 -0.006104 0 0.096667 0 0 0.072678 -0.063737 0 0.076691 -0.058847 0 0.080375 -0.053705 0 0.083716 -0.048333 0 0.086698 -0.042755 0 0.089308 -0.036993 0 0.091537 -0.031072 0 0.093373 -0.025019 0 0.094809 -0.018859 0 0.09584 -0.012618 0 0.09646 -0.006322 0 0.1 0 0 0.075184 -0.065935 0 0.079335 -0.060876 0 0.083147 -0.055557 0 0.086603 -0.05 0 0.089687 -0.044229 0 0.092388 -0.038268 0 0.094693 -0.032144 0 0.096593 -0.025882 0 0.098079 -0.019509 0 0.099144 -0.013053 0 0.099786 -0.00654 0 0.06364 0.06364 0 0.089807 0.005886 0 0.08923 0.011747 0 0.088271 0.017558 0 0.086933 0.023294 0 0.085224 0.02893 0 0.083149 0.034442 0 0.080719 0.039806 0 0.077942 0.045 0 0.074832 0.050001 0 0.071402 0.054789 0 0.067666 0.059341 0 0.065997 0.065997 0 0.093133 0.006104 0 0.092535 0.012182 0 0.09154 0.018208 0 0.090153 0.024156 0 0.08838 0.030001 0 0.086229 0.035717 0 0.083708 0.04128 0 0.080829 0.046667 0 0.077604 0.051853 0 0.074046 0.056818 0 0.070172 0.061539 0 0.068354 0.068354 0 0.09646 0.006322 0 0.09584 0.012618 0 0.094809 0.018859 0 0.093373 0.025019 0 0.091537 0.031072 0 0.089308 0.036993 0 0.086698 0.042755 0 0.083716 0.048333 0 0.080375 0.053705 0 0.076691 0.058847 0 0.072678 0.063737 0 0.070711 0.070711 0 0.099786 0.00654 0 0.099144 0.013053 0 0.098079 0.019509 0 0.096593 0.025882 0 0.094693 0.032144 0 0.092388 0.038268 0 0.089687 0.044229 0 0.086603 0.05 0 0.083147 0.055557 0 0.079335 0.060876 0 0.075184 0.065935 0 0.059341 0.067666 0 0.054789 0.071402 0 0.050001 0.074832 0 0.045 0.077942 0 0.039806 0.080719 0 0.034442 0.083149 0 0.02893 0.085224 0 0.023294 0.086933 0 0.017558 0.088271 0 0.011747 0.08923 0 0.005886 0.089807 0 0.061539 0.070172 0 0.056818 0.074046 0 0.051853 0.077604 0 0.046667 0.080829 0 0.04128 0.083708 0 0.035717 0.086229 0 0.030001 0.08838 0 0.024156 0.090153 0 0.018208 0.09154 0 0.012182 0.092535 0 0.006104 0.093133 0 0.063737 0.072678 0 0.058847 0.076691 0 0.053705 0.080375 0 0.048333 0.083716 0 0.042755 0.086698 0 0.036993 0.089308 0 0.031072 0.091537 0 0.025019 0.093373 0 0.018859 0.094809 0 0.012618 0.09584 0 0.006322 0.09646 0 0.065935 0.075184 0 0.060876 0.079335 0 0.055557 0.083147 0 0.05 0.086603 0 0.044229 0.089687 0 0.038268 0.092388 0 0.032144 0.094693 0 0.025882 0.096593 0 0.019509 0.098079 0 0.013053 0.099144 0 0.00654 0.099786 0 
</DataArray>
</Points>
<Cells>
<DataArray Name="connectivity" format="ascii" type="Int64">