<?xml version="1.0"?>
<VTKFile byte_order="LittleEndian" type="UnstructuredGrid" version="0.1">
<UnstructuredGrid>
<Piece NumberOfCells="288" NumberOfPoints="384">
<PointData>
<DataArray Name="Warping_X" format="ascii" type="Float64">
0.192545 0.235741 0.211401 0.227174 0.239851 0.249463 0.256107 0.259912 0.261066 0.25978 0.256313 0.250947 0.243982 0.243122 0.205098 0.224607 0.240801 0.253658 0.263233 0.269628 0.272991 0.273517 0.271448 0.267057 0.260647 0.252554 0.250497 0.218194 0.238337 0.25493 0.267946 0.277454 0.283562 0.286433 0.286285 0.283371 0.277991 0.27048 0.261189 0.257865 0.231821 0.252582 0.269545 0.282708 0.292118 0.2979 0.300237 0.299359 0.295549 0.289121 0.280437 0.269885 0.149847 0.226555 0.216764 0.206696 0.19668 0.187024 0.178017 0.16992 0.162965 0.157345 0.153217 0.150695 0.147257 0.23271 0.221684 0.210402 0.19922 0.188467 0.178458 0.169476 0.161769 0.155549 0.150983 0.148195 0.144136 0.23879 0.226462 0.213903 0.20149 0.189586 0.178524 0.16861 0.160115 0.153264 0.148237 0.145168 0.14049 0.244796 0.2311 0.217198 0.203495 0.190381 0.178214 0.167327 0.158004 0.150491 0.144984 0.14162 0.235741 0.150695 0.153217 0.157345 0.162965 0.16992 0.178017 0.187024 0.19668 0.206696 0.216764 0.226555 0.243122 0.148195 0.150983 0.155549 0.161769 0.169476 0.178458 0.188467 0.19922 0.210402 0.221684 0.23271 0.250497 0.145168 0.148237 0.153264 0.160115 0.16861 0.178524 0.189586 0.20149 0.213903 0.226462 0.23879 0.257865 0.14162 0.144984 0.150491 0.158004 0.167327 0.178214 0.190381 0.203495 0.217198 0.2311 0.244796 0.192545 0.243982 0.250947 0.256313 0.25978 0.261066 0.259912 0.256107 0.249463 0.239851 0.227174 0.211401 0.205098 0.252554 0.260647 0.267057 0.271448 0.273517 0.272991 0.269628 0.263233 0.253658 0.240801 0.224607 0.218194 0.261189 0.27048 0.277991 0.283371 0.286285 0.286433 0.283562 0.277454 0.267946 0.25493 0.238337 0.231821 0.269885 0.280437 0.289121 0.295549 0.299359 0.300237 0.2979 0.292118 0.282708 0.269545 0.252582 -0.233739 0.16967 0.143847 0.115103 0.0835609 0.0494226 0.0129355 -0.0255687 -0.0657285 -0.107104 -0.149239 -0.19162 -0.240289 0.182044 0.155685 0.126124 0.0934783 0.0579538 0.0198349 -0.0205397 -0.0627627 -0.106365 -0.150857 -0.195682 -0.246849 0.194878 0.167992 0.137583 0.103803 0.0668628 0.0270548 -0.0152305 -0.059563 -0.105457 -0.152358 -0.199692 -0.253397 0.208244 0.180803 0.149537 0.114579 0.0761762 0.0346526 -0.00960267 -0.0561067 -0.104343 -0.153722 -0.203626 -0.53754 -0.275049 -0.315006 -0.353081 -0.388753 -0.421535 -0.450951 -0.476602 -0.498107 -0.515174 -0.527538 -0.535028 -0.563275 -0.284092 -0.326501 -0.366955 -0.404875 -0.439741 -0.471054 -0.498358 -0.521267 -0.539443 -0.55262 -0.560599 -0.58949 -0.293204 -0.338133 -0.381009 -0.421241 -0.458243 -0.491485 -0.520498 -0.544835 -0.564148 -0.578158 -0.586646 -0.616177 -0.30237 -0.349875 -0.395247 -0.43784 -0.47703 -0.512263 -0.543008 -0.568819 -0.589304 -0.604152 -0.613161 -0.233739 -0.535028 -0.527538 -0.515174 -0.498107 -0.476602 -0.450951 -0.421535 -0.388753 -0.353081 -0.315006 -0.275049 -0.240289 -0.560599 -0.55262 -0.539443 -0.521267 -0.498358 -0.471054 -0.439741 -0.404875 -0.366955 -0.326501 -0.284092 -0.246849 -0.586646 -0.578158 -0.564148 -0.544835 -0.520498 -0.491485 -0.458243 -0.421241 -0.381009 -0.338133 -0.293204 -0.253397 -0.613161 -0.604152 -0.589304 -0.568819 -0.543008 -0.512263 -0.47703 -0.43784 -0.395247 -0.349875 -0.30237 -0.19162 -0.149239 -0.107104 -0.0657285 -0.0255687 0.0129355 0.0494226 0.0835609 0.115103 0.143847 0.16967 -0.195682 -0.150857 -0.106365 -0.0627627 -0.0205397 0.0198349 0.0579538 0.0934783 0.126124 0.155685 0.182044 -0.199692 -0.152358 -0.105457 -0.059563 -0.0152305 0.0270548 0.0668628 0.103803 0.137583 0.167992 0.194878 -0.203626 -0.153722 -0.104343 -0.0561067 -0.00960267 0.0346526 0.0761762 0.114579 0.149537 0.180803 0.208244 
</DataArray>
<DataArray Name="Warping_Y" format="ascii" type="Float64">
-0.27635 -0.0255394 -0.254073 -0.230803 -0.206998 -0.183043 -0.15932 -0.136177 -0.11395 -0.0929273 -0.0733771 -0.0555156 -0.0395278 -0.0203501 -0.287926 -0.263846 -0.238793 -0.213211 -0.187521 -0.162124 -0.137404 -0.11371 -0.0913603 -0.0706398 -0.0517769 -0.0349685 -0.0146373 -0.299504 -0.273553 -0.246642 -0.21922 -0.191733 -0.164611 -0.138255 -0.113053 -0.0893434 -0.0674178 -0.0475334 -0.0298901 -0.00840464 -0.311086 -0.283186 -0.254361 -0.225036 -0.195685 -0.166775 -0.138744 -0.111986 -0.0868728 -0.0637165 -0.0427871 -0.0242963 8.53666e-12 -0.0136404 -0.00386825 0.00378747 0.00938472 0.0130249 0.014848 0.0150395 0.013813 0.0114173 0.00812089 0.00421453 8.15889e-12 -0.00801439 0.00200011 0.00971048 0.0151763 0.0185108 0.0198718 0.019456 0.0175009 0.0142742 0.0100697 0.00520214 7.78085e-12 -0.00186936 0.0083764 0.0161149 0.021421 0.0244141 0.0252647 0.0241925 0.0214511 0.0173322 0.0121551 0.00625837 7.40311e-12 0.00479104 0.0152524 0.0230019 0.0281163 0.0307276 0.0310261 0.0292448 0.0256614 0.0205891 0.0143735 0.00738223 0.0255394 -0.00421453 -0.00812089 -0.0114173 -0.013813 -0.0150395 -0.014848 -0.0130249 -0.00938472 -0.00378747 0.00386825 0.0136404 0.0203501 -0.00520214 -0.0100697 -0.0142742 -0.0175009 -0.019456 -0.0198718 -0.0185108 -0.0151763 -0.00971048 -0.00200011 0.00801439 0.0146373 -0.00625837 -0.0121551 -0.0173322 -0.0214511 -0.0241925 -0.0252647 -0.0244141 -0.021421 -0.0161149 -0.0083764 0.00186936 0.00840464 -0.00738223 -0.0143735 -0.0205891 -0.0256614 -0.0292448 -0.0310261 -0.0307276 -0.0281163 -0.0230019 -0.0152524 -0.00479104 0.27635 0.0395278 0.0555156 0.0733771 0.0929273 0.11395 0.136177 0.15932 0.183043 0.206998 0.230803 0.254073 0.287926 0.0349685 0.0517769 0.0706398 0.0913603 0.11371 0.137404 0.162124 0.187521 0.213211 0.238793 0.263846 0.299504 0.0298901 0.0475334 0.0674178 0.0893434 0.113053 0.138255 0.164611 0.191733 0.21922 0.246642 0.273553 0.311086 0.0242963 0.0427871 0.0637165 0.0868728 0.111986 0.138744 0.166775 0.195685 0.225036 0.254361 0.283186 0.389802 0.298078 0.318962 0.33865 0.356619 0.372404 0.385544 0.39564 0.402324 0.405295 0.404313 0.399183 0.413733 0.311279 0.333955 0.355356 0.374957 0.392238 0.406711 0.41793 0.42551 0.42911 0.428465 0.423381 0.438167 0.324664 0.349159 0.372332 0.393612 0.412436 0.428277 0.440663 0.449155 0.453402 0.453121 0.448085 0.463127 0.338198 0.364555 0.389567 0.41258 0.432995 0.45025 0.46383 0.473279 0.478201 0.478287 0.473314 -2.2657e-11 0.376125 0.358195 0.336102 0.310044 0.280257 0.247052 0.210797 0.171914 0.130872 0.0881788 0.0443704 -1.97693e-11 0.399471 0.380636 0.357338 0.329772 0.29819 0.262939 0.224407 0.183048 0.139371 0.0939166 0.0472607 -1.69051e-11 0.423313 0.40356 0.379026 0.349918 0.316521 0.279175 0.238315 0.194432 0.148063 0.0997876 0.0502146 -1.4017e-11 0.447672 0.426982 0.401195 0.370518 0.335249 0.295768 0.252539 0.206072 0.156943 0.105782 0.0532345 -0.389802 -0.0443704 -0.0881788 -0.130872 -0.171914 -0.210797 -0.247052 -0.280257 -0.310044 -0.336102 -0.358195 -0.376125 -0.413733 -0.0472607 -0.0939166 -0.139371 -0.183048 -0.224407 -0.262939 -0.29819 -0.329772 -0.357338 -0.380636 -0.399471 -0.438167 -0.0502146 -0.0997876 -0.148063 -0.194432 -0.238315 -0.279175 -0.316521 -0.349918 -0.379026 -0.40356 -0.423313 -0.463127 -0.0532345 -0.105782 -0.156943 -0.206072 -0.252539 -0.295768 -0.335249 -0.370518 -0.401195 -0.426982 -0.447672 -0.399183 -0.404313 -0.405295 -0.402324 -0.39564 -0.385544 -0.372404 -0.356619 -0.33865 -0.318962 -0.298078 -0.423381 -0.428465 -0.42911 -0.42551 -0.41793 -0.406711 -0.392238 -0.374957 -0.355356 -0.333955 -0.311279 -0.448085 -0.453121 -0.453402 -0.449155 -0.440663 -0.428277 -0.412436 -0.393612 -0.372332 -0.349159 -0.324664 -0.473314 -0.478287 -0.478201 -0.473279 -0.46383 -0.45025 -0.432995 -0.41258 -0.389567 -0.364555 -0.338198 
</DataArray>
<DataArray Name="Warping_Z" format="ascii" type="Float64">
0 0 0 0 0 0 0 0 0 0 0 0 0 0 0 0 0 0 0 0 0 0 0 0 0 0 0 0 0 0 0 0 0 0 0 0 0 0 0 0 0 0 0 0 0 0 0 0 0 0 0 0 0 0 0 0 0 0 0 0 0 0 0 0 0 0 0 0 0 0 0 0 0 0 0 0 0 0 0 0 0 0 0 0 0 0 0 0 0 0 0 0 0 0 0 0 0 0 0 0 0 0 0 0 0 0 0 0 0 0 0 0 0 0 0 0 0 0 0 0 0 0 0 0 0 0 0 0 0 0 0 0 0 0 0 0 0 0 0 0 0 0 0 0 0 0 0 0 0 0 0 0 0 0 0 0 0 0 0 0 0 0 0 0 0 0 0 0 0 0 0 0 0 0 0 0 0 0 0 0 0 0 0 0 0 0 0 0 0 0 0 0 0 0 0 0 0 0 0 0 0 0 0 0 0 0 0 0 0 0 0 0 0 0 0 0 0 0 0 0 0 0 0 0 0 0 0 0 0 0 0 0 0 0 0 0 0 0 0 0 0 0 0 0 0 0 0 0 0 0 0 0 0 0 0 0 0 0 0 0 0 0 0 0 0 0 0 0 0 0 0 0 0 0 0 0 0 0 0 0 0 0 0 0 0 0 0 0 0 0 0 0 0 0 0 0 0 0 0 0 0 0 0 0 0 0 0 0 0 0 0 0 0 0 0 0 0 0 0 0 0 0 0 0 0 0 0 0 0 0 0 0 0 0 0 0 0 0 0 0 0 0 0 0 0 0 0 0 0 0 0 0 0 0 0 0 0 0 0 0 0 0 0 0 0 0 0 0 0 0 0 0 0 0 0 0 0 0 0 0 0 0 0 0 
</DataArray>
</PointData>
<CellData>
<DataArray Name="MaterialId" format="ascii" type="Float64">
1 1 1 1 1 1 1 1 1 1 1 1 1 1 1 1 1 1 1 1 1 1 1 1 1 1 1 1 1 1 1 1 1 1 1 1 1 1 1 1 1 1 1 1 1 1 1 1 1 1 1 1 1 1 1 1 1 1 1 1 1 1 1 1 1 1 1 1 1 1 1 1 1 1 1 1 1 1 1 1 1 1 1 1 1 1 1 1 1 1 1 1 1 1 1 1 1 1 1 1 1 1 1 1 1 1 1 1 1 1 1 1 1 1 1 1 1 1 1 1 1 1 1 1 1 1 1 1 1 1 1 1 1 1 1 1 1 1 1 1 1 1 1 1 2 2 2 2 2 2 2 2 2 2 2 2 2 2 2 2 2 2 2 2 2 2 2 2 2 2 2 2 2 2 2 2 2 2 2 2 2 2 2 2 2 2 2 2 2 2 2 2 2 2 2 2 2 2 2 2 2 2 2 2 2 2 2 2 2 2 2 2 2 2 2 2 2 2 2 2 2 2 2 2 2 2 2 2 2 2 2 2 2 2 2 2 2 2 2 2 2 2 2 2 2 2 2 2 2 2 2 2 2 2 2 2 2 2 2 2 2 2 2 2 2 2 2 2 2 2 2 2 2 2 2 2 2 2 2 2 2 2 2 2 2 2 2 2 
</DataArray>
<DataArray Name="FiberAngle" format="ascii" type="Float64">
0 0 0 0 0 0 0 0 0 0 0 0 0 0 0 0 0 0 0 0 0 0 0 0 0 0 0 0 0 0 0 0 0 0 0 0 0 0 0 0 0 0 0 0 0 0 0 0 0 0 0 0 0 0 0 0 0 0 0 0 0 0 0 0 0 0 0 0 0 0 0 0 0 0 0 0 0 0 0 0 0 0 0 0 0 0 0 0 0 0 0 0 0 0 0 0 0 0 0 0 0 0 0 0 0 0 0 0 0 0 0 0 0 0 0 0 0 0 0 0 0 0 0 0 0 0 0 0 0 0 0 0 0 0 0 0 0 0 0 0 0 0 0 0 0 0 0 0 0 0 0 0 0 0 0 0 0 0 0 0 0 0 0 0 0 0 0 0 0 0 0 0 0 0 0 0 0 0 0 0 0 0 0 0 0 0 0 0 0 0 0 0 0 0 0 0 0 0 0 0 0 0 0 0 0 0 0 0 0 0 0 0 0 0 0 0 0 0 0 0 0 0 0 0 0 0 0 0 0 0 0 0 0 0 0 0 0 0 0 0 0 0 0 0 0 0 0 0 0 0 0 0 0 0 0 0 0 0 0 0 0 0 0 0 0 0 0 0 0 0 0 0 0 0 0 0 0 0 0 0 0 0 0 0 0 0 0 0 
</DataArray>
<DataArray Name="Strain_11" format="ascii" type="Float64">
-3.32288 -3.04625 -2.7706 -2.4976 -2.22889 -1.96563 -1.70895 -1.45993 -1.21969 -0.989209 -0.769486 -0.561472 -3.3193 -3.03375 -2.748 -2.46623 -2.18869 -1.91652 -1.651 -1.39324 -1.14431 -0.905312 -0.677241 -0.461091 -3.31367 -3.01929 -2.72523 -2.43432 -2.14772 -1.86662 -1.59219 -1.32561 -1.06804 -0.820534 -0.584171 -0.359992 -0.366004 -0.183942 -0.0159794 0.137148 0.274853 0.396583 0.50181 0.590142 0.661239 0.714809 0.750617 0.768561 -0.257793 -0.0682188 0.106809 0.26658 0.410396 0.537563 0.647647 0.740108 0.81454 0.870673 0.908204 0.927023 -0.148976 0.0479354 0.229924 0.396136 0.545841 0.678354 0.793096 0.889532 0.967203 1.02577 1.06498 1.08463 0.768561 0.750617 0.714809 0.661239 0.590142 0.50181 0.396583 0.274853 0.137148 -0.0159794 -0.183942 -0.366004 0.927023 0.908204 0.870673 0.81454 0.740108 0.647647 0.537563 0.410396 0.26658 0.106809 -0.0682188 -0.257793 1.08463 1.06498 1.02577 0.967203 0.889532 0.793096 0.678354 0.545841 0.396136 0.229924 0.0479354 -0.148976 -0.561472 -0.769486 -0.989209 -1.21969 -1.45993 -1.70895 -1.96563 -2.22889 -2.4976 -2.7706 -3.04625 -3.32288 -0.461091 -0.677241 -0.905312 -1.14431 -1.39324 -1.651 -1.91652 -2.18869 -2.46623 -2.748 -3.03375 -3.3193 -0.359992 -0.584171 -0.820534 -1.06804 -1.32561 -1.59219 -1.86662 -2.14772 -2.43432 -2.72523 -3.01929 -3.31367 -3.70407 -3.97286 -4.2362 -4.49672 -4.75309 -5.00467 -5.25056 -5.48995 -5.72191 -5.94562 -6.16012 -6.36447 -3.60043 -3.89204 -4.17757 -4.46079 -4.73959 -5.01287 -5.27934 -5.53786 -5.78733 -6.02664 -6.25481 -6.47084 -3.50942 -3.81527 -4.12331 -4.42729 -4.72689 -5.02028 -5.30601 -5.58259 -5.84868 -6.10307 -6.34462 -6.57229 -6.55777 -6.73904 -6.9074 -7.06191 -7.20175 -7.3261 -7.43417 -7.52532 -7.59899 -7.65467 -7.69198 -7.7107 -6.67383 -6.86292 -7.03732 -7.19636 -7.3394 -7.46575 -7.57504 -7.66678 -7.74059 -7.79622 -7.8334 -7.85204 -6.7852 -6.98252 -7.16364 -7.32794 -7.47496 -7.60429 -7.71565 -7.80876 -7.88343 -7.93956 -7.97702 -7.99578 -7.7107 -7.69198 -7.65467 -7.59899 -7.52532 -7.43417 -7.3261 -7.20175 -7.06191 -6.9074 -6.73904 -6.55777 -7.85204 -7.8334 -7.79622 -7.74059 -7.66678 -7.57504 -7.46575 -7.3394 -7.19636 -7.03732 -6.86292 -6.67383 -7.99578 -7.97702 -7.93956 -7.88343 -7.80876 -7.71565 -7.60429 -7.47496 -7.32794 -7.16364 -6.98252 -6.7852 -6.36447 -6.16012 -5.94562 -5.72191 -5.48995 -5.25056 -5.00467 -4.75309 -4.49672 -4.2362 -3.97286 -3.70407 -6.47084 -6.25481 -6.02664 -5.78733 -5.53786 -5.27934 -5.01287 -4.73959 -4.46079 -4.17757 -3.89204 -3.60043 -6.57229 -6.34462 -6.10307 -5.84868 -5.58259 -5.30601 -5.02028 -4.72689 -4.42729 -4.12331 -3.81527 -3.50942 
</DataArray>
<DataArray Name="Strain_22" format="ascii" type="Float64">
-3.32887 -3.04776 -2.77353 -2.50155 -2.23366 -1.97082 -1.71431 -1.46506 -1.22422 -0.992793 -0.771751 -0.562106 -3.32379 -3.03196 -2.74753 -2.46576 -2.18798 -1.91577 -1.65013 -1.39233 -1.14341 -0.904397 -0.676386 -0.460305 -3.31935 -3.01638 -2.72227 -2.4303 -2.14292 -1.86128 -1.5867 -1.32029 -1.06325 -0.816663 -0.581536 -0.358925 -0.364729 -0.180536 -0.010315 0.145183 0.285244 0.409241 0.516601 0.606822 0.679516 0.734338 0.771011 0.789391 -0.257101 -0.0676575 0.107269 0.26688 0.410525 0.537601 0.647516 0.73986 0.814191 0.870228 0.907732 0.926501 -0.14975 0.0451292 0.224896 0.388846 0.536275 0.666567 0.77925 0.873851 0.949976 1.00732 1.04568 1.06492 0.789391 0.771011 0.734338 0.679516 0.606822 0.516601 0.409241 0.285244 0.145183 -0.010315 -0.180536 -0.364729 0.926501 0.907732 0.870228 0.814191 0.73986 0.647516 0.537601 0.410525 0.26688 0.107269 -0.0676575 -0.257101 1.06492 1.04568 1.00732 0.949976 0.873851 0.77925 0.666567 0.536275 0.388846 0.224896 0.0451292 -0.14975 -0.562106 -0.771751 -0.992793 -1.22422 -1.46506 -1.71431 -1.97082 -2.23366 -2.50155 -2.77353 -3.04776 -3.32887 -0.460305 -0.676386 -0.904397 -1.14341 -1.39233 -1.65013 -1.91577 -2.18798 -2.46576 -2.74753 -3.03196 -3.32379 -0.358925 -0.581536 -0.816663 -1.06325 -1.32029 -1.5867 -1.86128 -2.14292 -2.4303 -2.72227 -3.01638 -3.31935 -3.59374 -3.85512 -4.13633 -4.41146 -4.68306 -4.94903 -5.20802 -5.45882 -5.70013 -5.93084 -6.14996 -6.35649 -3.61614 -3.89708 -4.18006 -4.46064 -4.73671 -5.00748 -5.27183 -5.52856 -5.77663 -6.01502 -6.24265 -6.45858 -3.63471 -3.93437 -4.22235 -4.50926 -4.79132 -5.06822 -5.3389 -5.60247 -5.85791 -6.10426 -6.34054 -6.56567 -6.54967 -6.72872 -6.89306 -7.04217 -7.17559 -7.29298 -7.39405 -7.47856 -7.54635 -7.5973 -7.6313 -7.64831 -6.66185 -6.85154 -7.02688 -7.18701 -7.33126 -7.45899 -7.56956 -7.66251 -7.73737 -7.79384 -7.83165 -7.85057 -6.77861 -6.97834 -7.16384 -7.33413 -7.48825 -7.62526 -7.74439 -7.84488 -7.92606 -7.98742 -8.02857 -8.04922 -7.64831 -7.6313 -7.5973 -7.54635 -7.47856 -7.39405 -7.29298 -7.17559 -7.04217 -6.89306 -6.72872 -6.54967 -7.85057 -7.83165 -7.79384 -7.73737 -7.66251 -7.56956 -7.45899 -7.33126 -7.18701 -7.02688 -6.85154 -6.66185 -8.04922 -8.02857 -7.98742 -7.92606 -7.84488 -7.74439 -7.62526 -7.48825 -7.33413 -7.16384 -6.97834 -6.77861 -6.35649 -6.14996 -5.93084 -5.70013 -5.45882 -5.20802 -4.94903 -4.68306 -4.41146 -4.13633 -3.85512 -3.59374 -6.45858 -6.24265 -6.01502 -5.77663 -5.52856 -5.27183 -5.00748 -4.73671 -4.46064 -4.18006 -3.89708 -3.61614 -6.56567 -6.34054 -6.10426 -5.85791 -5.60247 -5.3389 -5.06822 -4.79132 -4.50926 -4.22235 -3.93437 -3.63471 
</DataArray>
<DataArray Name="Strain_12" format="ascii" type="Float64">
0.00217676 -0.00101396 0.00156144 0.00246033 0.00363909 0.0050691 0.00668333 0.00831002 0.00999034 0.0115883 0.0130002 0.0142256 0.00120589 0.000640714 0.00099143 0.000889603 0.000750272 0.000621749 0.000458215 0.000327308 0.000160651 -3.3685e-05 -0.000146272 -0.000307998 -0.00117556 0.00155021 -0.000939399 -0.00175844 -0.00291258 -0.00435587 -0.00590419 -0.00757729 -0.00920594 -0.0107665 -0.0122149 -0.0134274 0.0151497 0.0157589 0.0159763 0.0157847 0.0152008 0.0141905 0.0127635 0.0110149 0.00890124 0.00656186 0.00400811 0.00135448 -0.00043136 -0.0005102 -0.000610882 -0.000615582 -0.000677188 -0.00065167 -0.000567325 -0.000551557 -0.000439371 -0.000319859 -0.000199366 -6.79275e-05 -0.0143709 -0.0149806 -0.0152353 -0.0150968 -0.0145462 -0.0135774 -0.0122841 -0.0105591 -0.00854978 -0.00632008 -0.00385462 -0.00130327 -0.00135448 -0.00400811 -0.00656186 -0.00890124 -0.0110149 -0.0127635 -0.0141905 -0.0152008 -0.0157847 -0.0159763 -0.0157589 -0.0151497 6.79275e-05 0.000199366 0.000319859 0.000439371 0.000551557 0.000567325 0.00065167 0.000677188 0.000615582 0.000610882 0.0005102 0.00043136 0.00130327 0.00385462 0.00632008 0.00854978 0.0105591 0.0122841 0.0135774 0.0145462 0.0150968 0.0152353 0.0149806 0.0143709 -0.0142256 -0.0130002 -0.0115883 -0.00999034 -0.00831002 -0.00668333 -0.0050691 -0.00363909 -0.00246033 -0.00156144 0.00101396 -0.00217676 0.000307998 0.000146272 3.3685e-05 -0.000160651 -0.000327308 -0.000458215 -0.000621749 -0.000750272 -0.000889603 -0.00099143 -0.000640714 -0.00120589 0.0134274 0.0122149 0.0107665 0.00920594 0.00757729 0.00590419 0.00435587 0.00291258 0.00175844 0.000939399 -0.00155021 0.00117556 0.0130985 -0.0146017 -0.022297 -0.0301229 -0.0341422 -0.0351373 -0.0333389 -0.0291393 -0.0231147 -0.0157521 -0.00757747 0.000792052 0.0118475 0.020909 0.0181735 0.0187382 0.0178281 0.0167202 0.0152041 0.0133729 0.0113675 0.00926094 0.00705599 0.00496041 0.0145812 0.0335039 0.0442556 0.0509182 0.0543373 0.0541995 0.0510263 0.045295 0.0375002 0.0282827 0.0182782 0.00805088 0.00888311 0.0161809 0.0223084 0.0269455 0.0298333 0.0308691 0.0300626 0.0274011 0.0231894 0.0175777 0.0109794 0.00372766 0.00297608 0.001164 -0.000326052 -0.00160894 -0.00245309 -0.00301928 -0.00329219 -0.00312089 -0.00276968 -0.00216967 -0.00137095 -0.000468557 -0.00179427 -0.0107479 -0.0183426 -0.0242264 -0.0281779 -0.0300693 -0.0297658 -0.0275608 -0.0235087 -0.0179083 -0.0112396 -0.00382107 -0.00372766 -0.0109794 -0.0175777 -0.0231894 -0.0274011 -0.0300626 -0.0308691 -0.0298333 -0.0269455 -0.0223084 -0.0161809 -0.00888311 0.000468557 0.00137095 0.00216967 0.00276968 0.00312089 0.00329219 0.00301928 0.00245309 0.00160894 0.000326052 -0.001164 -0.00297608 0.00382107 0.0112396 0.0179083 0.0235087 0.0275608 0.0297658 0.0300693 0.0281779 0.0242264 0.0183426 0.0107479 0.00179427 -0.000792053 0.00757747 0.0157521 0.0231147 0.0291393 0.0333389 0.0351373 0.0341422 0.0301229 0.022297 0.0146017 -0.0130985 -0.00496041 -0.00705599 -0.00926094 -0.0113675 -0.0133729 -0.0152041 -0.0167202 -0.0178281 -0.0187382 -0.0181735 -0.020909 -0.0118475 -0.00805088 -0.0182782 -0.0282827 -0.0375002 -0.045295 -0.0510263 -0.0541995 -0.0543373 -0.0509182 -0.0442556 -0.0335039 -0.0145812 
</DataArray>
<DataArray Name="Strain_13" format="ascii" type="Float64">
0 0 0 0 0 0 0 0 0 0 0 0 0 0 0 0 0 0 0 0 0 0 0 0 0 0 0 0 0 0 0 0 0 0 0 0 0 0 0 0 0 0 0 0 0 0 0 0 0 0 0 0 0 0 0 0 0 0 0 0 0 0 0 0 0 0 0 0 0 0 0 0 0 0 0 0 0 0 0 0 0 0 0 0 0 0 0 0 0 0 0 0 0 0 0 0 0 0 0 0 0 0 0 0 0 0 0 0 0 0 0 0 0 0 0 0 0 0 0 0 0 0 0 0 0 0 0 0 0 0 0 0 0 0 0 0 0 0 0 0 0 0 0 0 0 0 0 0 0 0 0 0 0 0 0 0 0 0 0 0 0 0 0 0 0 0 0 0 0 0 0 0 0 0 0 0 0 0 0 0 0 0 0 0 0 0 0 0 0 0 0 0 0 0 0 0 0 0 0 0 0 0 0 0 0 0 0 0 0 0 0 0 0 0 0 0 0 0 0 0 0 0 0 0 0 0 0 0 0 0 0 0 0 0 0 0 0 0 0 0 0 0 0 0 0 0 0 0 0 0 0 0 0 0 0 0 0 0 0 0 0 0 0 0 0 0 0 0 0 0 0 0 0 0 0 0 0 0 0 0 0 0 0 0 0 0 0 0 
</DataArray>
<DataArray Name="Strain_23" format="ascii" type="Float64">
0 0 0 0 0 0 0 0 0 0 0 0 0 0 0 0 0 0 0 0 0 0 0 0 0 0 0 0 0 0 0 0 0 0 0 0 0 0 0 0 0 0 0 0 0 0 0 0 0 0 0 0 0 0 0 0 0 0 0 0 0 0 0 0 0 0 0 0 0 0 0 0 0 0 0 0 0 0 0 0 0 0 0 0 0 0 0 0 0 0 0 0 0 0 0 0 0 0 0 0 0 0 0 0 0 0 0 0 0 0 0 0 0 0 0 0 0 0 0 0 0 0 0 0 0 0 0 0 0 0 0 0 0 0 0 0 0 0 0 0 0 0 0 0 0 0 0 0 0 0 0 0 0 0 0 0 0 0 0 0 0 0 0 0 0 0 0 0 0 0 0 0 0 0 0 0 0 0 0 0 0 0 0 0 0 0 0 0 0 0 0 0 0 0 0 0 0 0 0 0 0 0 0 0 0 0 0 0 0 0 0 0 0 0 0 0 0 0 0 0 0 0 0 0 0 0 0 0 0 0 0 0 0 0 0 0 0 0 0 0 0 0 0 0 0 0 0 0 0 0 0 0 0 0 0 0 0 0 0 0 0 0 0 0 0 0 0 0 0 0 0 0 0 0 0 0 0 0 0 0 0 0 0 0 0 0 0 0 
</DataArray>
<DataArray Name="Strain_33" format="ascii" type="Float64">
1 1 1 1 1 1 1 1 1 1 1 1 1 1 1 1 1 1 1 1 1 1 1 1 1 1 1 1 1 1 1 1 1 1 1 1 1 1 1 1 1 1 1 1 1 1 1 1 1 1 1 1 1 1 1 1 1 1 1 1 1 1 1 1 1 1 1 1 1 1 1 1 1 1 1 1 1 1 1 1 1 1 1 1 1 1 1 1 1 1 1 1 1 1 1 1 1 1 1 1 1 1 1 1 1 1 1 1 1 1 1 1 1 1 1 1 1 1 1 1 1 1 1 1 1 1 1 1 1 1 1 1 1 1 1 1 1 1 1 1 1 1 1 1 1 1 1 1 1 1 1 1 1 1 1 1 1 1 1 1 1 1 1 1 1 1 1 1 1 1 1 1 1 1 1 1 1 1 1 1 1 1 1 1 1 1 1 1 1 1 1 1 1 1 1 1 1 1 1 1 1 1 1 1 1 1 1 1 1 1 1 1 1 1 1 1 1 1 1 1 1 1 1 1 1 1 1 1 1 1 1 1 1 1 1 1 1 1 1 1 1 1 1 1 1 1 1 1 1 1 1 1 1 1 1 1 1 1 1 1 1 1 1 1 1 1 1 1 1 1 1 1 1 1 1 1 1 1 1 1 1 1 1 1 1 1 1 1 
</DataArray>
<DataArray Name="Stress_11" format="ascii" type="Float64">
-433.899 -395.354 -357.11 -319.221 -281.923 -245.371 -209.725 -175.133 -141.749 -109.712 -79.1582 -50.222 -433.361 -393.526 -353.876 -314.741 -276.187 -238.385 -201.504 -165.702 -131.129 -97.9347 -66.2597 -36.2408 -432.612 -391.487 -350.645 -310.21 -270.384 -231.327 -193.207 -156.187 -120.428 -86.0778 -53.2839 -22.1915 -23.0207 2.32488 25.7158 47.0493 66.2404 83.2104 97.8844 110.205 120.124 127.599 132.597 135.101 -8.0076 18.3185 42.6251 64.8111 84.7808 102.44 117.725 130.564 140.899 148.692 153.904 156.516 7.06521 34.3575 59.5721 82.5942 103.323 121.666 137.545 150.888 161.633 169.734 175.155 177.873 135.101 132.597 127.599 120.124 110.205 97.8844 83.2104 66.2404 47.0493 25.7158 2.32488 -23.0207 156.516 153.904 148.692 140.899 130.564 117.725 102.44 84.7808 64.8111 42.6251 18.3185 -8.0076 177.873 175.155 169.734 161.633 150.888 137.545 121.666 103.323 82.5942 59.5721 34.3575 7.06521 -50.222 -79.1582 -109.712 -141.749 -175.133 -209.725 -245.371 -281.923 -319.221 -357.11 -395.354 -433.899 -36.2408 -66.2597 -97.9347 -131.129 -165.702 -201.504 -238.385 -276.187 -314.741 -353.876 -393.526 -433.361 -22.1915 -53.2839 -86.0778 -120.428 -156.187 -193.207 -231.327 -270.384 -310.21 -350.645 -391.487 -432.612 -0.483612 -0.520738 -0.557809 -0.594398 -0.630429 -0.665769 -0.700285 -0.73385 -0.766327 -0.797592 -0.827512 -0.855955 -0.472718 -0.512924 -0.552509 -0.591772 -0.630419 -0.668304 -0.705255 -0.741111 -0.77572 -0.808933 -0.840608 -0.87061 -0.463122 -0.505429 -0.547655 -0.5894 -0.630525 -0.670815 -0.710082 -0.748135 -0.784795 -0.819904 -0.853306 -0.884857 -0.882799 -0.907913 -0.931185 -0.952495 -0.971738 -0.988816 -1.00363 -1.01611 -1.02618 -1.03378 -1.03887 -1.04142 -0.89881 -0.925089 -0.949337 -0.971457 -0.991357 -1.00894 -1.02416 -1.03693 -1.04721 -1.05496 -1.06015 -1.06274 -0.914427 -0.941901 -0.967178 -0.990164 -1.01078 -1.02896 -1.04464 -1.05778 -1.06833 -1.07627 -1.08157 -1.08423 -1.04142 -1.03887 -1.03378 -1.02618 -1.01611 -1.00363 -0.988816 -0.971738 -0.952495 -0.931185 -0.907913 -0.882799 -1.06274 -1.06015 -1.05496 -1.04721 -1.03693 -1.02416 -1.00894 -0.991357 -0.971457 -0.949337 -0.925089 -0.89881 -1.08423 -1.08157 -1.07627 -1.06833 -1.05778 -1.04464 -1.02896 -1.01078 -0.990164 -0.967178 -0.941901 -0.914427 -0.855955 -0.827512 -0.797592 -0.766327 -0.73385 -0.700285 -0.665769 -0.630429 -0.594398 -0.557809 -0.520738 -0.483612 -0.87061 -0.840608 -0.808933 -0.77572 -0.741111 -0.705255 -0.668304 -0.630419 -0.591772 -0.552509 -0.512924 -0.472718 -0.884857 -0.853306 -0.819904 -0.784795 -0.748135 -0.710082 -0.670815 -0.630525 -0.5894 -0.547655 -0.505429 -0.463122 
</DataArray>
<DataArray Name="Stress_22" format="ascii" type="Float64">
-434.399 -395.48 -357.353 -319.55 -282.32 -245.804 -210.172 -175.56 -142.127 -110.011 -79.3469 -50.2749 -433.735 -393.377 -353.837 -314.702 -276.128 -238.322 -201.432 -165.626 -131.055 -97.8584 -66.1885 -36.1753 -433.086 -391.245 -350.398 -309.876 -269.983 -230.882 -192.75 -155.743 -120.029 -85.7552 -53.0643 -22.1025 -22.9144 2.60875 26.1878 47.7189 67.1064 84.2652 99.117 111.595 121.647 129.227 134.296 136.837 -7.94989 18.3653 42.6635 64.8361 84.7915 102.444 117.714 130.543 140.87 148.655 153.865 156.473 7.00069 34.1237 59.1531 81.9867 102.526 120.684 136.392 149.582 160.197 168.196 173.548 176.23 136.837 134.296 129.227 121.647 111.595 99.117 84.2652 67.1064 47.7189 26.1878 2.60875 -22.9144 156.473 153.865 148.655 140.87 130.543 117.714 102.444 84.7915 64.8361 42.6635 18.3653 -7.94989 176.23 173.548 168.196 160.197 149.582 136.392 120.684 102.526 81.9867 59.1531 34.1237 7.00069 -50.2749 -79.3469 -110.011 -142.127 -175.56 -210.172 -245.804 -282.32 -319.55 -357.353 -395.48 -434.399 -36.1753 -66.1885 -97.8584 -131.055 -165.626 -201.432 -238.322 -276.128 -314.702 -353.837 -393.377 -433.735 -22.1025 -53.0643 -85.7552 -120.029 -155.743 -192.75 -230.882 -269.983 -309.876 -350.398 -391.245 -433.086 -0.474417 -0.510926 -0.549486 -0.587293 -0.624593 -0.661133 -0.69674 -0.731256 -0.764512 -0.796361 -0.826665 -0.85529 -0.474028 -0.513344 -0.552717 -0.591759 -0.630179 -0.667855 -0.70463 -0.740336 -0.774829 -0.807965 -0.839595 -0.869588 -0.473562 -0.515355 -0.555909 -0.596231 -0.635893 -0.67481 -0.712823 -0.749791 -0.785565 -0.820003 -0.852967 -0.884304 -0.882124 -0.907053 -0.92999 -0.95085 -0.969559 -0.986056 -1.00029 -1.01221 -1.02179 -1.029 -1.03381 -1.03622 -0.897812 -0.924141 -0.948467 -0.970678 -0.990679 -1.00838 -1.0237 -1.03658 -1.04695 -1.05477 -1.06 -1.06262 -0.913878 -0.941552 -0.967194 -0.99068 -1.01189 -1.0307 -1.04703 -1.06079 -1.07188 -1.08026 -1.08587 -1.08868 -1.03622 -1.03381 -1.029 -1.02179 -1.01221 -1.00029 -0.986056 -0.969559 -0.95085 -0.92999 -0.907053 -0.882124 -1.06262 -1.06 -1.05477 -1.04695 -1.03658 -1.0237 -1.00838 -0.990679 -0.970678 -0.948467 -0.924141 -0.897812 -1.08868 -1.08587 -1.08026 -1.07188 -1.06079 -1.04703 -1.0307 -1.01189 -0.99068 -0.967194 -0.941552 -0.913878 -0.85529 -0.826665 -0.796361 -0.764512 -0.731256 -0.69674 -0.661133 -0.624593 -0.587293 -0.549486 -0.510926 -0.474417 -0.869588 -0.839595 -0.807965 -0.774829 -0.740336 -0.70463 -0.667855 -0.630179 -0.591759 -0.552717 -0.513344 -0.474028 -0.884304 -0.852967 -0.820003 -0.785565 -0.749791 -0.712823 -0.67481 -0.635893 -0.596231 -0.555909 -0.515355 -0.473562 
</DataArray>
<DataArray Name="Stress_12" format="ascii" type="Float64">
0.0906991 -0.0422487 0.0650604 0.102514 0.15163 0.211214 0.278474 0.346254 0.416267 0.482849 0.54168 0.592739 0.0502457 0.0266966 0.0413099 0.0370671 0.0312616 0.0259064 0.0190924 0.013638 0.00669383 -0.00140355 -0.00609471 -0.0128334 -0.0489822 0.0645926 -0.0391419 -0.0732688 -0.121358 -0.181496 -0.24601 -0.315723 -0.383584 -0.44861 -0.508957 -0.55948 0.631241 0.656627 0.665686 0.657701 0.633373 0.591276 0.531816 0.458958 0.370888 0.273413 0.167006 0.056437 -0.0179735 -0.0212585 -0.0254536 -0.0256494 -0.0282164 -0.0271531 -0.0236387 -0.0229817 -0.0183073 -0.0133275 -0.00830698 -0.00283033 -0.598791 -0.624198 -0.634809 -0.62904 -0.606097 -0.56573 -0.511841 -0.439967 -0.356244 -0.263339 -0.160611 -0.0543032 -0.056437 -0.167006 -0.273413 -0.370888 -0.458958 -0.531816 -0.591276 -0.633373 -0.657701 -0.665686 -0.656627 -0.631241 0.00283033 0.00830698 0.0133275 0.0183073 0.0229817 0.0236387 0.0271531 0.0282164 0.0256494 0.0254536 0.0212585 0.0179735 0.0543032 0.160611 0.263339 0.356244 0.439967 0.511841 0.56573 0.606097 0.62904 0.634809 0.624198 0.598791 -0.592739 -0.54168 -0.482849 -0.416267 -0.346254 -0.278474 -0.211214 -0.15163 -0.102514 -0.0650604 0.0422487 -0.0906991 0.0128334 0.00609471 0.00140355 -0.00669383 -0.013638 -0.0190924 -0.0259064 -0.0312616 -0.0370671 -0.0413099 -0.0266966 -0.0502457 0.55948 0.508957 0.44861 0.383584 0.315723 0.24601 0.181496 0.121358 0.0732688 0.0391419 -0.0645926 0.0489822 0.000545775 -0.000608408 -0.000929051 -0.00125513 -0.0014226 -0.00146407 -0.00138913 -0.00121415 -0.000963118 -0.000656343 -0.00031573 3.30024e-05 0.000493649 0.000871215 0.000757236 0.000780763 0.000742845 0.00069668 0.000633509 0.000557209 0.000473649 0.000385875 0.000294002 0.000206685 0.000607556 0.00139601 0.001844 0.00212161 0.00226407 0.00225833 0.00212611 0.0018873 0.00156252 0.00117845 0.000761596 0.000335456 0.000370133 0.000674208 0.000929526 0.00112274 0.00124306 0.00128622 0.00125262 0.00114172 0.000966234 0.00073241 0.00045748 0.00015532 0.000124004 4.85003e-05 -1.35856e-05 -6.70395e-05 -0.000102213 -0.000125804 -0.000137176 -0.000130038 -0.000115404 -9.04037e-05 -5.71232e-05 -1.95234e-05 -7.47619e-05 -0.000447835 -0.000764279 -0.00100944 -0.00117409 -0.0012529 -0.00124025 -0.00114838 -0.000979539 -0.000746186 -0.00046832 -0.000159212 -0.00015532 -0.00045748 -0.00073241 -0.000966234 -0.00114172 -0.00125262 -0.00128622 -0.00124306 -0.00112274 -0.000929526 -0.000674208 -0.000370133 1.95234e-05 5.71232e-05 9.04037e-05 0.000115404 0.000130038 0.000137176 0.000125804 0.000102213 6.70395e-05 1.35856e-05 -4.85003e-05 -0.000124004 0.000159212 0.00046832 0.000746186 0.000979539 0.00114838 0.00124025 0.0012529 0.00117409 0.00100944 0.000764279 0.000447835 7.47619e-05 -3.30025e-05 0.00031573 0.000656343 0.000963118 0.00121415 0.00138913 0.00146407 0.0014226 0.00125513 0.000929051 0.000608408 -0.000545775 -0.000206685 -0.000294002 -0.000385875 -0.000473649 -0.000557209 -0.000633509 -0.00069668 -0.000742845 -0.000780763 -0.000757236 -0.000871215 -0.000493649 -0.000335456 -0.000761596 -0.00117845 -0.00156252 -0.0018873 -0.00212611 -0.00225833 -0.00226407 -0.00212161 -0.001844 -0.00139601 -0.000607556 
</DataArray>
<DataArray Name="Stress_13" format="ascii" type="Float64">
0 0 0 0 0 0 0 0 0 0 0 0 0 0 0 0 0 0 0 0 0 0 0 0 0 0 0 0 0 0 0 0 0 0 0 0 0 0 0 0 0 0 0 0 0 0 0 0 0 0 0 0 0 0 0 0 0 0 0 0 0 0 0 0 0 0 0 0 0 0 0 0 0 0 0 0 0 0 0 0 0 0 0 0 0 0 0 0 0 0 0 0 0 0 0 0 0 0 0 0 0 0 0 0 0 0 0 0 0 0 0 0 0 0 0 0 0 0 0 0 0 0 0 0 0 0 0 0 0 0 0 0 0 0 0 0 0 0 0 0 0 0 0 0 0 0 0 0 0 0 0 0 0 0 0 0 0 0 0 0 0 0 0 0 0 0 0 0 0 0 0 0 0 0 0 0 0 0 0 0 0 0 0 0 0 0 0 0 0 0 0 0 0 0 0 0 0 0 0 0 0 0 0 0 0 0 0 0 0 0 0 0 0 0 0 0 0 0 0 0 0 0 0 0 0 0 0 0 0 0 0 0 0 0 0 0 0 0 0 0 0 0 0 0 0 0 0 0 0 0 0 0 0 0 0 0 0 0 0 0 0 0 0 0 0 0 0 0 0 0 0 0 0 0 0 0 0 0 0 0 0 0 0 0 0 0 0 0 
</DataArray>
<DataArray Name="Stress_23" format="ascii" type="Float64">