<?xml version="1.0"?>
<VTKFile byte_order="LittleEndian" type="UnstructuredGrid" version="0.1">
<UnstructuredGrid>
<Piece NumberOfCells="288" NumberOfPoints="384">
<PointData>
<DataArray Name="Warping_X" format="ascii" type="Float64">
-0 -0 0 0 0 0 0 0 0 0 0 0 0 0 0 0 0 0 0 0 0 0 0 0 0 0 0 0 0 0 0 0 0 0 0 0 0 0 0 0 0 0 0 0 0 0 0 0 0 0 0 0 0 0 0 0 0 0 0 0 0 0 0 0 0 0 0 0 0 0 0 0 0 0 0 0 0 0 0 0 0 0 0 0 0 0 0 0 0 0 0 0 0 0 0 0 0 0 0 0 -0 0 0 0 0 0 0 0 0 0 0 0 0 0 0 0 0 0 0 0 0 0 0 0 0 0 0 0 0 0 0 0 0 0 0 0 0 0 0 0 0 0 0 0 0 0 0 0 0 0 0 0 0 0 0 0 0 0 0 0 0 0 0 0 0 0 0 0 0 0 0 0 0 0 0 0 0 0 0 0 0 0 0 0 0 0 0 0 0 0 0 0 0 0 0 0 0 0 0 0 0 0 0 0 0 0 0 0 -0 0 0 0 0 0 0 0 0 0 0 0 0 0 0 0 0 0 0 0 0 0 0 0 0 0 0 0 0 0 0 0 0 0 0 0 0 0 0 0 0 0 0 0 0 0 0 0 0 0 0 0 0 0 0 0 0 0 0 0 0 0 0 0 0 0 0 0 0 0 0 0 0 0 0 0 0 0 0 0 0 0 0 0 0 0 0 0 0 0 0 0 0 0 0 0 0 0 0 0 0 0 0 0 0 0 0 0 -0 0 0 0 0 0 0 0 0 0 0 0 0 0 0 0 0 0 0 0 0 0 0 0 0 0 0 0 0 0 0 0 0 0 0 0 0 0 0 0 0 0 0 0 0 0 0 0 0 0 0 0 0 0 0 0 0 0 0 0 0 0 0 0 0 0 0 0 
</DataArray>
<DataArray Name="Warping_Y" format="ascii" type="Float64">
0 -0 0 0 0 0 0 0 0 0 0 0 0 0 -0 0 0 0 0 0 0 0 0 0 0 0 0 0 0 0 0 0 0 0 0 0 0 0 0 0 0 0 0 0 0 0 0 0 0 0 0 0 -0 0 0 0 0 0 0 0 0 0 0 0 0 0 0 0 0 0 0 0 0 0 0 0 0 0 0 0 0 0 0 0 0 0 0 0 0 0 0 0 0 0 0 0 0 0 0 0 -0 0 0 0 0 0 0 0 0 0 0 0 0 0 0 0 0 0 0 0 0 0 0 0 0 0 0 0 0 0 0 0 0 0 0 0 0 0 0 0 0 0 0 0 0 0 0 0 0 0 0 0 0 0 0 0 0 0 0 0 0 0 0 0 0 0 0 0 0 0 0 0 0 0 0 0 0 0 0 0 0 0 0 0 0 0 0 0 0 0 0 0 0 0 0 0 0 0 0 0 0 0 0 0 0 0 0 0 0 0 0 0 0 0 0 0 0 0 0 0 -0 0 0 0 0 0 0 0 0 0 0 0 0 0 0 0 0 0 0 0 0 0 0 0 0 0 0 0 0 0 0 0 0 0 0 0 -0 0 0 0 0 0 0 0 0 0 0 0 0 0 0 0 0 0 0 0 0 0 0 0 0 0 0 0 0 0 0 0 0 0 0 0 0 0 0 0 0 0 0 0 0 0 0 0 -0 0 0 0 0 0 0 0 0 0 0 0 0 0 0 0 0 0 0 0 0 0 0 0 0 0 0 0 0 0 0 0 0 0 0 0 0 0 0 0 0 0 0 0 0 0 0 0 0 0 0 0 0 0 0 0 0 0 0 0 0 0 0 0 0 0 0 0 0 0 0 0 0 0 0 0 0 0 0 0 
</DataArray>
<DataArray Name="Warping_Z" format="ascii" type="Float64">
0 0 0 0 0 0 0 0 0 0 0 0 0 0 0 0 0 0 0 0 0 0 0 0 0 0 0 0 0 0 0 0 0 0 0 0 0 0 0 0 0 0 0 0 0 0 0 0 0 0 0 0 0 0 0 0 0 0 0 0 0 0 0 0 0 0 0 0 0 0 0 0 0 0 0 0 0 0 0 0 0 0 0 0 0 0 0 0 0 0 0 0 0 0 0 0 0 0 0 0 0 0 0 0 0 0 0 0 0 0 0 0 0 0 0 0 0 0 0 0 0 0 0 0 0 0 0 0 0 0 0 0 0 0 0 0 0 0 0 0 0 0 0 0 0 0 0 0 0 0 0 0 0 0 0 0 0 0 0 0 0 0 0 0 0 0 0 0 0 0 0 0 0 0 0 0 0 0 0 0 0 0 0 0 0 0 0 0 0 0 0 0 0 0 0 0 0 0 0 0 0 0 0 0 0 0 0 0 0 0 0 0 0 0 0 0 0 0 0 0 0 0 0 0 0 0 0 0 0 0 0 0 0 0 0 0 0 0 0 0 0 0 0 0 0 0 0 0 0 0 0 0 0 0 0 0 0 0 0 0 0 0 0 0 0 0 0 0 0 0 0 0 0 0 0 0 0 0 0 0 0 0 0 0 0 0 0 0 0 0 0 0 0 0 0 0 0 0 0 0 0 0 0 0 0 0 0 0 0 0 0 0 0 0 0 0 0 0 0 0 0 0 0 0 0 0 0 0 0 0 0 0 0 0 0 0 0 0 0 0 0 0 0 0 0 0 0 0 0 0 0 0 0 0 0 0 0 0 0 0 0 0 0 0 0 0 0 0 0 0 0 0 0 0 0 0 0 0 0 0 0 0 0 0 
</DataArray>
</PointData>
<CellData>
<DataArray Name="MaterialId" format="ascii" type="Float64">
1 1 1 1 1 1 1 1 1 1 1 1 1 1 1 1 1 1 1 1 1 1 1 1 1 1 1 1 1 1 1 1 1 1 1 1 1 1 1 1 1 1 1 1 1 1 1 1 1 1 1 1 1 1 1 1 1 1 1 1 1 1 1 1 1 1 1 1 1 1 1 1 1 1 1 1 1 1 1 1 1 1 1 1 1 1 1 1 1 1 1 1 1 1 1 1 1 1 1 1 1 1 1 1 1 1 1 1 1 1 1 1 1 1 1 1 1 1 1 1 1 1 1 1 1 1 1 1 1 1 1 1 1 1 1 1 1 1 1 1 1 1 1 1 2 2 2 2 2 2 2 2 2 2 2 2 2 2 2 2 2 2 2 2 2 2 2 2 2 2 2 2 2 2 2 2 2 2 2 2 2 2 2 2 2 2 2 2 2 2 2 2 2 2 2 2 2 2 2 2 2 2 2 2 2 2 2 2 2 2 2 2 2 2 2 2 2 2 2 2 2 2 2 2 2 2 2 2 2 2 2 2 2 2 2 2 2 2 2 2 2 2 2 2 2 2 2 2 2 2 2 2 2 2 2 2 2 2 2 2 2 2 2 2 2 2 2 2 2 2 2 2 2 2 2 2 2 2 2 2 2 2 2 2 2 2 2 2 
</DataArray>
<DataArray Name="FiberAngle" format="ascii" type="Float64">
0 0 0 0 0 0 0 0 0 0 0 0 0 0 0 0 0 0 0 0 0 0 0 0 0 0 0 0 0 0 0 0 0 0 0 0 0 0 0 0 0 0 0 0 0 0 0 0 0 0 0 0 0 0 0 0 0 0 0 0 0 0 0 0 0 0 0 0 0 0 0 0 0 0 0 0 0 0 0 0 0 0 0 0 0 0 0 0 0 0 0 0 0 0 0 0 0 0 0 0 0 0 0 0 0 0 0 0 0 0 0 0 0 0 0 0 0 0 0 0 0 0 0 0 0 0 0 0 0 0 0 0 0 0 0 0 0 0 0 0 0 0 0 0 0 0 0 0 0 0 0 0 0 0 0 0 0 0 0 0 0 0 0 0 0 0 0 0 0 0 0 0 0 0 0 0 0 0 0 0 0 0 0 0 0 0 0 0 0 0 0 0 0 0 0 0 0 0 0 0 0 0 0 0 0 0 0 0 0 0 0 0 0 0 0 0 0 0 0 0 0 0 0 0 0 0 0 0 0 0 0 0 0 0 0 0 0 0 0 0 0 0 0 0 0 0 0 0 0 0 0 0 0 0 0 0 0 0 0 0 0 0 0 0 0 0 0 0 0 0 0 0 0 0 0 0 0 0 0 0 0 0 0 0 0 0 0 0 
</DataArray>
<DataArray Name="Strain_11" format="ascii" type="Float64">
0 0 0 0 0 0 0 0 0 0 0 0 0 0 0 0 0 0 0 0 0 0 0 0 0 0 0 0 0 0 0 0 0 0 0 0 0 0 0 0 0 0 0 0 0 0 0 0 0 0 0 0 0 0 0 0 0 0 0 0 0 0 0 0 0 0 0 0 0 0 0 0 0 0 0 0 0 0 0 0 0 0 0 0 0 0 0 0 0 0 0 0 0 0 0 0 0 0 0 0 0 0 0 0 0 0 0 0 0 0 0 0 0 0 0 0 0 0 0 0 0 0 0 0 0 0 0 0 0 0 0 0 0 0 0 0 0 0 0 0 0 0 0 0 0 0 0 0 0 0 0 0 0 0 0 0 0 0 0 0 0 0 0 0 0 0 0 0 0 0 0 0 0 0 0 0 0 0 0 0 0 0 0 0 0 0 0 0 0 0 0 0 0 0 0 0 0 0 0 0 0 0 0 0 0 0 0 0 0 0 0 0 0 0 0 0 0 0 0 0 0 0 0 0 0 0 0 0 0 0 0 0 0 0 0 0 0 0 0 0 0 0 0 0 0 0 0 0 0 0 0 0 0 0 0 0 0 0 0 0 0 0 0 0 0 0 0 0 0 0 0 0 0 0 0 0 0 0 0 0 0 0 0 0 0 0 0 0 
</DataArray>
<DataArray Name="Strain_22" format="ascii" type="Float64">
0 0 0 0 0 0 0 0 0 0 0 0 0 0 0 0 0 0 0 0 0 0 0 0 0 0 0 0 0 0 0 0 0 0 0 0 0 0 0 0 0 0 0 0 0 0 0 0 0 0 0 0 0 0 0 0 0 0 0 0 0 0 0 0 0 0 0 0 0 0 0 0 0 0 0 0 0 0 0 0 0 0 0 0 0 0 0 0 0 0 0 0 0 0 0 0 0 0 0 0 0 0 0 0 0 0 0 0 0 0 0 0 0 0 0 0 0 0 0 0 0 0 0 0 0 0 0 0 0 0 0 0 0 0 0 0 0 0 0 0 0 0 0 0 0 0 0 0 0 0 0 0 0 0 0 0 0 0 0 0 0 0 0 0 0 0 0 0 0 0 0 0 0 0 0 0 0 0 0 0 0 0 0 0 0 0 0 0 0 0 0 0 0 0 0 0 0 0 0 0 0 0 0 0 0 0 0 0 0 0 0 0 0 0 0 0 0 0 0 0 0 0 0 0 0 0 0 0 0 0 0 0 0 0 0 0 0 0 0 0 0 0 0 0 0 0 0 0 0 0 0 0 0 0 0 0 0 0 0 0 0 0 0 0 0 0 0 0 0 0 0 0 0 0 0 0 0 0 0 0 0 0 0 0 0 0 0 0 
</DataArray>
<DataArray Name="Strain_12" format="ascii" type="Float64">
0 0 0 0 0 0 0 0 0 0 0 0 0 0 0 0 0 0 0 0 0 0 0 0 0 0 0 0 0 0 0 0 0 0 0 0 0 0 0 0 0 0 0 0 0 0 0 0 0 0 0 0 0 0 0 0 0 0 0 0 0 0 0 0 0 0 0 0 0 0 0 0 0 0 0 0 0 0 0 0 0 0 0 0 0 0 0 0 0 0 0 0 0 0 0 0 0 0 0 0 0 0 0 0 0 0 0 0 0 0 0 0 0 0 0 0 0 0 0 0 0 0 0 0 0 0 0 0 0 0 0 0 0 0 0 0 0 0 0 0 0 0 0 0 0 0 0 0 0 0 0 0 0 0 0 0 0 0 0 0 0 0 0 0 0 0 0 0 0 0 0 0 0 0 0 0 0 0 0 0 0 0 0 0 0 0 0 0 0 0 0 0 0 0 0 0 0 0 0 0 0 0 0 0 0 0 0 0 0 0 0 0 0 0 0 0 0 0 0 0 0 0 0 0 0 0 0 0 0 0 0 0 0 0 0 0 0 0 0 0 0 0 0 0 0 0 0 0 0 0 0 0 0 0 0 0 0 0 0 0 0 0 0 0 0 0 0 0 0 0 0 0 0 0 0 0 0 0 0 0 0 0 0 0 0 0 0 0 
</DataArray>
<DataArray Name="Strain_13" format="ascii" type="Float64">
11157.4 11403.2 11325.1 11179.9 10985.6 10744.1 10456.6 10124.3 9748.67 9331.4 8874.06 8378.76 11071.2 11022.2 10928.9 10787.7 10600.1 10367.1 10089.7 9769.09 9406.64 9003.94 8562.67 8084.75 10994.2 10668.2 10559.6 10422.1 10240.8 10015.7 9747.62 9437.87 9087.82 8698.72 8272.35 7810.69 7847.54 7282.76 6686.67 6062.12 5411.66 4737.78 4043.82 3332.39 2606.82 1869.94 1125.17 375.602 7572.21 7027.2 6452.13 5849.4 5221.68 4571.64 3901.82 3215.45 2515.35 1804.4 1085.69 362.416 7315.56 6789.04 6233.34 5651.12 5044.73 4416.59 3769.61 3106.41 2430.07 1743.37 1048.89 350.117 -375.602 -1125.17 -1869.94 -2606.82 -3332.39 -4043.82 -4737.78 -5411.66 -6062.12 -6686.67 -7282.76 -7847.54 -362.416 -1085.69 -1804.4 -2515.35 -3215.45 -3901.82 -4571.64 -5221.68 -5849.4 -6452.13 -7027.2 -7572.21 -350.117 -1048.89 -1743.37 -2430.07 -3106.41 -3769.61 -4416.59 -5044.73 -5651.12 -6233.34 -6789.04 -7315.56 -8378.76 -8874.06 -9331.4 -9748.67 -10124.3 -10456.6 -10744.1 -10985.6 -11179.9 -11325.1 -11403.2 -11157.4 -8084.75 -8562.67 -9003.94 -9406.64 -9769.09 -10089.7 -10367.1 -10600.1 -10787.7 -10928.9 -11022.2 -11071.2 -7810.69 -8272.35 -8698.72 -9087.82 -9437.87 -9747.62 -10015.7 -10240.8 -10422.1 -10559.6 -10668.2 -10994.2 11157.3 11402.8 11325.8 11179.4 10985.5 10744.8 10457.4 10124.3 9747.44 9332.24 8875.29 8379.22 11071 11022.5 10929.1 10787.2 10599.9 10367.7 10090.5 9769.08 9406.06 9004.49 8563.79 8085.18 10993.7 10669 10560.2 10420.9 10240.5 10016.2 9748.86 9438.01 9086.76 8699.47 8273.86 7810.95 7847.8 7282.97 6685.99 6061.54 5412.6 4738.32 4043.98 3332.13 2606.74 1869.56 1124.69 375.75 7572.1 7027.21 6452.18 5849.26 5221.81 4572.05 3902.27 3215.64 2515.02 1803.83 1085.51 362.515 7314.8 6788.92 6234.33 5651.07 5044.15 4416.93 3770.42 3107.15 2429.43 1742.3 1049.05 350.53 -375.75 -1124.69 -1869.56 -2606.74 -3332.13 -4043.98 -4738.32 -5412.6 -6061.54 -6685.99 -7282.97 -7847.8 -362.515 -1085.51 -1803.83 -2515.02 -3215.64 -3902.27 -4572.05 -5221.81 -5849.26 -6452.18 -7027.21 -7572.1 -350.53 -1049.05 -1742.3 -2429.43 -3107.15 -3770.42 -4416.93 -5044.15 -5651.07 -6234.33 -6788.92 -7314.8 -8379.22 -8875.29 -9332.24 -9747.44 -10124.3 -10457.4 -10744.8 -10985.5 -11179.4 -11325.8 -11402.8 -11157.3 -8085.18 -8563.79 -9004.49 -9406.06 -9769.08 -10090.5 -10367.7 -10599.9 -10787.2 -10929.1 -11022.5 -11071 -7810.95 -8273.86 -8699.47 -9086.76 -9438.01 -9748.86 -10016.2 -10240.5 -10420.9 -10560.2 -10669 -10993.7 
</DataArray>
<DataArray Name="Strain_23" format="ascii" type="Float64">
-13475 -12948.3 -12213.7 -11478 -10752.4 -10041 -9346.99 -8673.12 -8022.66 -7398.1 -6802.01 -6237.24 -13302.2 -12968.4 -12279.2 -11569.2 -10869.3 -10182.9 -9513.14 -8863.09 -8235.38 -7632.65 -7057.57 -6512.57 -13506.5 -13025.2 -12339.6 -11654.8 -10978.3 -10315.2 -9668.19 -9040.05 -8433.65 -7851.44 -7295.73 -6769.22 -5706.01 -5210.72 -4753.38 -4336.11 -3960.49 -3628.18 -3340.72 -3099.21 -2904.79 -2758.22 -2660.22 -2611.06 -6000.03 -5522.11 -5080.84 -4678.14 -4315.69 -3995.12 -3717.69 -3484.65 -3297.04 -3155.69 -3061.13 -3013.68 -6274.09 -5812.43 -5386.06 -4996.95 -4646.9 -4337.15 -4069.11 -3844.01 -3662.74 -3526.21 -3434.83 -3388.99 -2611.06 -2660.22 -2758.22 -2904.79 -3099.21 -3340.72 -3628.18 -3960.49 -4336.11 -4753.38 -5210.72 -5706.01 -3013.68 -3061.13 -3155.69 -3297.04 -3484.65 -3717.69 -3995.12 -4315.69 -4678.14 -5080.84 -5522.11 -6000.03 -3388.99 -3434.83 -3526.21 -3662.74 -3844.01 -4069.11 -4337.15 -4646.9 -4996.95 -5386.06 -5812.43 -6274.09 -6237.24 -6802.01 -7398.1 -8022.66 -8673.12 -9346.99 -10041 -10752.4 -11478 -12213.7 -12948.3 -13475 -6512.57 -7057.57 -7632.65 -8235.38 -8863.09 -9513.14 -10182.9 -10869.3 -11569.2 -12279.2 -12968.4 -13302.2 -6769.22 -7295.73 -7851.44 -8433.65 -9040.05 -9668.19 -10315.2 -10978.3 -11654.8 -12339.6 -13025.2 -13506.5 -13474.9 -12948.8 -12214 -11478.1 -10752.6 -10040.8 -9346.45 -8672.17 -8023.24 -7398.79 -6801.81 -6236.98 -13302.1 -12968.6 -12279.8 -11569.5 -10869.2 -10182.5 -9512.73 -8862.96 -8235.51 -7632.6 -7057.56 -6512.67 -13506.1 -13025.1 -12340.7 -11655.4 -10977.6 -10314.4 -9667.85 -9040.63 -8433.7 -7850.45 -7295.85 -6769.98 -5705.56 -5209.48 -4752.54 -4337.33 -3960.49 -3627.37 -3339.94 -3099.26 -2905.26 -2757.58 -2660.6 -2611.14 -5999.6 -5520.99 -5080.29 -4678.72 -4315.7 -3994.3 -3717.09 -3484.83 -3297.51 -3155.42 -3060.89 -3013.87 -6273.83 -5810.92 -5385.31 -4998.02 -4646.76 -4335.91 -4068.53 -3844.32 -3663.97 -3525.63 -3433.99 -3389.45 -2611.14 -2660.6 -2757.58 -2905.26 -3099.26 -3339.94 -3627.37 -3960.49 -4337.33 -4752.54 -5209.48 -5705.56 -3013.87 -3060.89 -3155.42 -3297.51 -3484.83 -3717.09 -3994.3 -4315.7 -4678.72 -5080.29 -5520.99 -5999.6 -3389.45 -3433.99 -3525.63 -3663.97 -3844.32 -4068.53 -4335.91 -4646.76 -4998.02 -5385.31 -5810.92 -6273.83 -6236.98 -6801.81 -7398.79 -8023.24 -8672.17 -9346.45 -10040.8 -10752.6 -11478.1 -12214 -12948.8 -13474.9 -6512.67 -7057.56 -7632.6 -8235.51 -8862.96 -9512.73 -10182.5 -10869.2 -11569.5 -12279.8 -12968.6 -13302.1 -6769.98 -7295.85 -7850.45 -8433.7 -9040.63 -9667.85 -10314.4 -10977.6 -11655.4 -12340.7 -13025.1 -13506.1 
</DataArray>
<DataArray Name="Strain_33" format="ascii" type="Float64">
0 0 0 0 0 0 0 0 0 0 0 0 0 0 0 0 0 0 0 0 0 0 0 0 0 0 0 0 0 0 0 0 0 0 0 0 0 0 0 0 0 0 0 0 0 0 0 0 0 0 0 0 0 0 0 0 0 0 0 0 0 0 0 0 0 0 0 0 0 0 0 0 0 0 0 0 0 0 0 0 0 0 0 0 0 0 0 0 0 0 0 0 0 0 0 0 0 0 0 0 0 0 0 0 0 0 0 0 0 0 0 0 0 0 0 0 0 0 0 0 0 0 0 0 0 0 0 0 0 0 0 0 0 0 0 0 0 0 0 0 0 0 0 0 0 0 0 0 0 0 0 0 0 0 0 0 0 0 0 0 0 0 0 0 0 0 0 0 0 0 0 0 0 0 0 0 0 0 0 0 0 0 0 0 0 0 0 0 0 0 0 0 0 0 0 0 0 0 0 0 0 0 0 0 0 0 0 0 0 0 0 0 0 0 0 0 0 0 0 0 0 0 0 0 0 0 0 0 0 0 0 0 0 0 0 0 0 0 0 0 0 0 0 0 0 0 0 0 0 0 0 0 0 0 0 0 0 0 0 0 0 0 0 0 0 0 0 0 0 0 0 0 0 0 0 0 0 0 0 0 0 0 0 0 0 0 0 0 
</DataArray>
<DataArray Name="Stress_11" format="ascii" type="Float64">
0 0 0 0 0 0 0 0 0 0 0 0 0 0 0 0 0 0 0 0 0 0 0 0 0 0 0 0 0 0 0 0 0 0 0 0 0 0 0 0 0 0 0 0 0 0 0 0 0 0 0 0 0 0 0 0 0 0 0 0 0 0 0 0 0 0 0 0 0 0 0 0 0 0 0 0 0 0 0 0 0 0 0 0 0 0 0 0 0 0 0 0 0 0 0 0 0 0 0 0 0 0 0 0 0 0 0 0 0 0 0 0 0 0 0 0 0 0 0 0 0 0 0 0 0 0 0 0 0 0 0 0 0 0 0 0 0 0 0 0 0 0 0 0 0 0 0 0 0 0 0 0 0 0 0 0 0 0 0 0 0 0 0 0 0 0 0 0 0 0 0 0 0 0 0 0 0 0 0 0 0 0 0 0 0 0 0 0 0 0 0 0 0 0 0 0 0 0 0 0 0 0 0 0 0 0 0 0 0 0 0 0 0 0 0 0 0 0 0 0 0 0 0 0 0 0 0 0 0 0 0 0 0 0 0 0 0 0 0 0 0 0 0 0 0 0 0 0 0 0 0 0 0 0 0 0 0 0 0 0 0 0 0 0 0 0 0 0 0 0 0 0 0 0 0 0 0 0 0 0 0 0 0 0 0 0 0 0 
</DataArray>
<DataArray Name="Stress_22" format="ascii" type="Float64">
0 0 0 0 0 0 0 0 0 0 0 0 0 0 0 0 0 0 0 0 0 0 0 0 0 0 0 0 0 0 0 0 0 0 0 0 0 0 0 0 0 0 0 0 0 0 0 0 0 0 0 0 0 0 0 0 0 0 0 0 0 0 0 0 0 0 0 0 0 0 0 0 0 0 0 0 0 0 0 0 0 0 0 0 0 0 0 0 0 0 0 0 0 0 0 0 0 0 0 0 0 0 0 0 0 0 0 0 0 0 0 0 0 0 0 0 0 0 0 0 0 0 0 0 0 0 0 0 0 0 0 0 0 0 0 0 0 0 0 0 0 0 0 0 0 0 0 0 0 0 0 0 0 0 0 0 0 0 0 0 0 0 0 0 0 0 0 0 0 0 0 0 0 0 0 0 0 0 0 0 0 0 0 0 0 0 0 0 0 0 0 0 0 0 0 0 0 0 0 0 0 0 0 0 0 0 0 0 0 0 0 0 0 0 0 0 0 0 0 0 0 0 0 0 0 0 0 0 0 0 0 0 0 0 0 0 0 0 0 0 0 0 0 0 0 0 0 0 0 0 0 0 0 0 0 0 0 0 0 0 0 0 0 0 0 0 0 0 0 0 0 0 0 0 0 0 0 0 0 0 0 0 0 0 0 0 0 0 
</DataArray>
<DataArray Name="Stress_12" format="ascii" type="Float64">
0 0 0 0 0 0 0 0 0 0 0 0 0 0 0 0 0 0 0 0 0 0 0 0 0 0 0 0 0 0 0 0 0 0 0 0 0 0 0 0 0 0 0 0 0 0 0 0 0 0 0 0 0 0 0 0 0 0 0 0 0 0 0 0 0 0 0 0 0 0 0 0 0 0 0 0 0 0 0 0 0 0 0 0 0 0 0 0 0 0 0 0 0 0 0 0 0 0 0 0 0 0 0 0 0 0 0 0 0 0 0 0 0 0 0 0 0 0 0 0 0 0 0 0 0 0 0 0 0 0 0 0 0 0 0 0 0 0 0 0 0 0 0 0 0 0 0 0 0 0 0 0 0 0 0 0 0 0 0 0 0 0 0 0 0 0 0 0 0 0 0 0 0 0 0 0 0 0 0 0 0 0 0 0 0 0 0 0 0 0 0 0 0 0 0 0 0 0 0 0 0 0 0 0 0 0 0 0 0 0 0 0 0 0 0 0 0 0 0 0 0 0 0 0 0 0 0 0 0 0 0 0 0 0 0 0 0 0 0 0 0 0 0 0 0 0 0 0 0 0 0 0 0 0 0 0 0 0 0 0 0 0 0 0 0 0 0 0 0 0 0 0 0 0 0 0 0 0 0 0 0 0 0 0 0 0 0 0 
</DataArray>
<DataArray Name="Stress_13" format="ascii" type="Float64">
464895 475137 471883 465833 457735 447673 435695 421849 406198 388811 369755 349118 461302 459263 455373 449491 441675 431965 420406 407049 391946 375167 356781 336867 458095 444511 439987 434259 426702 417323 406154 393248 378662 362449 344684 325448 326983 303451 278614 252590 225487 197409 168494 138851 108618 77914.6 46882.6 15650.2 315511 292802 268841 243727 217572 190486 162577 133978 104807 75183.7 45237.5 15100.8 304817 282879 259725 235465 210199 184026 157068 129435 101254 72640.8 43704.1 14588.3 -15650.2 -46882.6 -77914.6 -108618 -138851 -168494 -197409 -225487 -252590 -278614 -303451 -326983 -15100.8 -45237.5 -75183.7 -104807 -133978 -162577 -190486 -217572 -243727 -268841 -292802 -315511 -14588.3 -43704.1 -72640.8 -101254 -129435 -157068 -184026 -210199 -235465 -259725 -282879 -304817 -349118 -369755 -388811 -406198 -421849 -435695 -447673 -457735 -465833 -471883 -475137 -464895 -336867 -356781 -375167 -391946 -407049 -420406 -431965 -441675 -449491 -455373 -459263 -461302 -325448 -344684 -362449 -378662 -393248 -406154 -417323 -426702 -434259 -439987 -444511 -458095 464.892 475.122 471.91 465.813 457.733 447.705 435.729 421.849 406.147 388.846 369.807 349.137 461.294 459.273 455.384 449.471 441.668 431.99 420.44 407.048 391.922 375.19 356.827 336.885 458.076 444.546 440.011 434.208 426.689 417.347 406.206 393.254 378.618 362.481 344.747 325.459 326.994 303.459 278.585 252.566 225.527 197.432 168.5 138.84 108.615 77.8992 46.8624 15.6564 315.507 292.803 268.843 243.721 217.577 190.504 162.596 133.986 104.793 75.16 45.23 15.1049 304.786 282.874 259.766 235.463 210.175 184.04 157.102 129.466 101.227 72.5963 43.7106 14.6055 -15.6564 -46.8624 -77.8992 -108.615 -138.84 -168.5 -197.432 -225.527 -252.566 -278.585 -303.459 -326.994 -15.1049 -45.23 -75.16 -104.793 -133.986 -162.596 -190.504 -217.577 -243.721 -268.843 -292.803 -315.507 -14.6055 -43.7106 -72.5963 -101.227 -129.466 -157.102 -184.04 -210.175 -235.463 -259.766 -282.874 -304.786 -349.137 -369.807 -388.846 -406.147 -421.849 -435.729 -447.705 -457.733 -465.813 -471.91 -475.122 -464.892 -336.885 -356.827 -375.19 -391.922 -407.048 -420.44 -431.99 -441.668 -449.471 -455.384 -459.273 -461.294 -325.459 -344.747 -362.481 -378.618 -393.254 -406.206 -417.347 -426.689 -434.208 -440.011 -444.546 -458.076 
</DataArray>
<DataArray Name="Stress_23" format="ascii" type="Float64">
-561464 -539517 -508907 -478254 -448019 -418377 -389461 -361383 -334280 -308257 -283419 -259887 -554263 -540356 -511638 -482053 -452893 -424293 -396384 -369298 -343144 -318029 -294068 -271359 -562777 -542722 -514155 -485620 -457434 -429802 -402844 -376672 -351405 -327146 -303991 -282053 -237752 -217115 -198059 -180673 -165022 -151175 -139198 -129135 -121034 -114927 -110844 -108795 -250003 -230090 -211703 -194924 -179822 -166465 -154905 -145195 -137378 -131488 -127548 -125571 -261422 -242186 -224421 -208208 -193622 -180716 -169548 -160168 -152616 -146927 -143119 -141209 -108795 -110844 -114927 -121034 -129135 -139198 -151175 -165022 -180673 -198059 -217115 -237752 -125571 -127548 -131488 -137378 -145195 -154905 -166465 -179822 -194924 -211703 -230090 -250003 -141209 -143119 -146927 -152616 -160168 -169548 -180716 -193622 -208208 -224421 -242186 -261422 -259887 -283419 -308257 -334280 -361383 -389461 -418377 -448019 -478254 -508907 -539517 -561464 -271359 -294068 -318029 -343144 -369298 -396384 -424293 -452893 -482053 -511638 -540356 -554263 -282053 -303991 -327146 -351405 -376672 -402844 -429802 -457434 -485620 -514155 -542722 -562777 -561.458 -539.538 -508.922 -478.257 -448.03 -418.37 -389.439 -361.343 -334.304 -308.285 -283.411 -259.876 -554.259 -540.364 -511.662 -482.067 -452.885 -424.274 -396.367 -369.293 -343.149 -318.027 -294.068 -271.363 -562.759 -542.716 -514.199 -485.647 -457.403 -429.768 -402.83 -376.696 -351.407 -327.105 -303.996 -282.085 -237.734 -217.063 -198.024 -180.724 -165.022 -151.142 -139.165 -129.137 -121.054 -114.9 -110.859 -108.798 -249.985 -230.043 -211.68 -194.948 -179.822 -166.431 -154.88 -145.202 -137.398 -131.477 -127.538 -125.579 -261.411 -242.123 -224.39 -208.252 -193.617 -180.665 -169.524 -160.181 -152.667 -146.902 -143.084 -141.228 -108.798 -110.859 -114.9 -121.054 -129.137 -139.165 -151.142 -165.022 -180.724 -198.024 -217.063 -237.734 -125.579 -127.538 -131.477 -137.398 -145.202 -154.88 -166.431 -179.822 -194.948 -211.68 -230.043 -249.985 -141.228 -143.084 -146.902 -152.667 -160.181 -169.524 -180.665 -193.617 -208.252 -224.39 -242.123 -261.411 -259.876 -283.411 -308.285 -334.304 -361.343 -389.439 -418.37 -448.03 -478.257 -508.922 -539.538 -561.458 -271.363 -294.068 -318.027 -343.149 -369.293 -396.367 -424.274 -452.885 -482.067 -511.662 -540.364 -554.259 -282.085 -303.996 -327.105 -351.407 -376.696 -402.83 -429.768 -457.403 -485.647 -514.199 -542.716 -562.759 
</DataArray>
<DataArray Name="Stress_33" format="ascii" type="Float64">
0 0 0 0 0 0 0 0 0 0 0 0 0 0 0 0 0 0 0 0 0 0 0 0 0 0 0 0 0 0 0 0 0 0 0 0 0 0 0 0 0 0 0 0 0 0 0 0 0 0 0 0 0 0 0 0 0 0 0 0 0 0 0 0 0 0 0 0 0 0 0 0 0 0 0 0 0 0 0 0 0 0 0 0 0 0 0 0 0 0 0 0 0 0 0 0 0 0 0 0 0 0 0 0 0 0 0 0 0 0 0 0 0 0 0 0 0 0 0 0 0 0 0 0 0 0 0 0 0 0 0 0 0 0 0 0 0 0 0 0 0 0 0 0 0 0 0 0 0 0 0 0 0 0 0 0 0 0 0 0 0 0 0 0 0 0 0 0 0 0 0 0 0 0 0 0 0 0 0 0 0 0 0 0 0 0 0 0 0 0 0 0 0 0 0 0 0 0 0 0 0 0 0 0 0 0 0 0 0 0 0 0 0 0 0 0 0 0 0 0 0 0 0 0 0 0 0 0 0 0 0 0 0 0 0 0 0 0 0 0 0 0 0 0 0 0 0 0 0 0 0 0 0 0 0 0 0 0 0 0 0 0 0 0 0 0 0 0 0 0 0 0 0 0 0 0 0 0 0 0 0 0 0 0 0 0 0 0 
</DataArray>
</CellData>
<Points>
<DataArray NumberOfComponents="3" format="ascii" type="Float64">
0 0.09 0 -0.06364 0.06364 0 -0.005886 0.089807 0 -0.011747 0.08923 0 -0.017558 0.088271 0 -0.023294 0.086933 0 -0.02893 0.085224 0 -0.034442 0.083149 0 -0.039806 0.080719 0 -0.045 0.077942 0 -0.050001 0.074832 0 -0.054789 0.071402 0 -0.059341 0.067666 0 -0.065997 0.065997 0 0 0.093333 0 -0.006104 0.093133 0 -0.012182 0.092535 0 -0.018208 0.09154 0 -0.024156 0.090153 0 -0.030001 0.08838 0 -0.035717 0.086229 0 -0.04128 0.083708 0 -0.046667 0.080829 0 -0.051853 0.077604 0 -0.056818 0.074046 0 -0.061539 0.070172 0 -0.068354 0.068354 0 0 0.096667 0 -0.006322 0.09646 0 -0.012618 0.09584 0 -0.018859 0.094809 0 -0.025019 0.093373 0 -0.031072 0.091537 0 -0.036993 0.089308 0 -0.042755 0.086698 0 -0.048333 0.083716 0 -0.053705 0.080375 0 -0.058847 0.076691 0 -0.063737 0.072678 0 -0.070711 0.070711 0 0 0.1 0 -0.00654 0.099786 0 -0.013053 0.099144 0 -0.019509 0.098079 0 -0.025882 0.096593 0 -0.032144 0.094693 0 -0.038268 0.092388 0 -0.044229 0.089687 0 -0.05 0.086603 0 -0.055557 0.083147 0 -0.060876 0.079335 0 -0.065935 0.075184 0 -0.09 0 0 -0.067666 0.059341 0 -0.071402 0.054789 0 -0.074832 0.050001 0 -0.077942 0.045 0 -0.080719 0.039806 0 -0.083149 0.034442 0 -0.085224 0.02893 0 -0.086933 0.023294 0 -0.088271 0.017558 0 -0.08923 0.011747 0 -0.089807 0.005886 0 -0.093333 0 0 -0.070172 0.061539 0 -0.074046 0.056818 0 -0.077604 0.051853 0 -0.080829 0.046667 0 -0.083708 0.04128 0 -0.086229 0.035717 0 -0.08838 0.030001 0 -0.090153 0.024156 0 -0.09154 0.018208 0 -0.092535 0.012182 0 -0.093133 0.006104 0 -0.096667 0 0 -0.072678 0.063737 0 -0.076691 0.058847 0 -0.080375 0.053705 0 -0.083716 0.048333 0 -0.086698 0.042755 0 -0.089308 0.036993 0 -0.091537 0.031072 0 -0.093373 0.025019 0 -0.094809 0.018859 0 -0.09584 0.012618 0 -0.09646 0.006322 0 -0.1 0 0 -0.075184 0.065935 0 -0.079335 0.060876 0 -0.083147 0.055557 0 -0.086603 0.05 0 -0.089687 0.044229 0 -0.092388 0.038268 0 -0.094693 0.032144 0 -0.096593 0.025882 0 -0.098079 0.019509 0 -0.099144 0.013053 0 -0.099786 0.00654 0 -0.06364 -0.06364 0 -0.089807 -0.005886 0 -0.08923 -0.011747 0 -0.088271 -0.017558 0 -0.086933 -0.023294 0 -0.085224 -0.02893 0 -0.083149 -0.034442 0 -0.080719 -0.039806 0 -0.077942 -0.045 0 -0.074832 -0.050001 0 -0.071402 -0.054789 0 -0.067666 -0.059341 0 -0.065997 -0.065997 0 -0.093133 -0.006104 0 -0.092535 -0.012182 0 -0.09154 -0.018208 0 -0.090153 -0.024156 0 -0.08838 -0.030001 0 -0.086229 -0.035717 0 -0.083708 -0.04128 0 -0.080829 -0.046667 0 -0.077604 -0.051853 0 -0.074046 -0.056818 0 -0.070172 -0.061539 0 -0.068354 -0.068354 0 -0.09646 -0.006322 0 -0.09584 -0.012618 0 -0.094809 -0.018859 0 -0.093373 -0.025019 0 -0.091537 -0.031072 0 -0.089308 -0.036993 0 -0.086698 -0.042755 0 -0.083716 -0.048333 0 -0.080375 -0.053705 0 -0.076691 -0.058847 0 -0.072678 -0.063737 0 -0.070711 -0.070711 0 -0.099786 -0.00654 0 -0.099144 -0.013053 0 -0.098079 -0.019509 0 -0.096593 -0.025882 0 -0.094693 -0.032144 0 -0.092388 -0.038268 0 -0.089687 -0.044229 0 -0.086603 -0.05 0 -0.083147 -0.055557 0 -0.079335 -0.060876 0 -0.075184 -0.065935 0 0 -0.09 0 -0.059341 -0.067666 0 -0.054789 -0.071402 0 -0.050001 -0.074832 0 -0.045 -0.077942 0 -0.039806 -0.080719 0 -0.034442 -0.083149 0 -0.02893 -0.085224 0 -0.023294 -0.086933 0 -0.017558 -0.088271 0 -0.011747 -0.08923 0 -0.005886 -0.089807 0 0 -0.093333 0 -0.061539 -0.070172 0 -0.056818 -0.074046 0 -0.051853 -0.077604 0 -0.046667 -0.080829 0 -0.04128 -0.083708 0 -0.035717 -0.086229 0 -0.030001 -0.08838 0 -0.024156 -0.090153 0 -0.018208 -0.09154 0 -0.012182 -0.092535 0 -0.006104 -0.093133 0 0 -0.096667 0 -0.063737 -0.072678 0 -0.058847 -0.076691 0 -0.053705 -0.080375 0 -0.048333 -0.083716 0 -0.042755 -0.086698 0 -0.036993 -0.089308 0 -0.031072 -0.091537 0 -0.025019 -0.093373 0 -0.018859 -0.094809 0 -0.012618 -0.09584 0 -0.006322 -0.09646 0 0 -0.1 0 -0.065935 -0.075184 0 -0.060876 -0.079335 0 -0.055557 -0.083147 0 -0.05 -0.086603 0 -0.044229 -0.089687 0 -0.038268 -0.092388 0 -0.032144 -0.094693 0 -0.025882 -0.096593 0 -0.019509 -0.098079 0 -0.013053 -0.099144 0 -0.00654 -0.099786 0 0.06364 -0.06364 0 0.005886 -0.089807 0 0.011747 -0.08923 0 0.017558 -0.088271 0 0.023294 -0.086933 0 0.02893 -0.085224 0 0.034442 -0.083149 0 0.039806 -0.080719 0 0.045 -0.077942 0 0.050001 -0.074832 0 0.054789 -0.071402 0 0.059341 -0.067666 0 0.065997 -0.065997 0 0.006104 -0.093133 0 0.012182 -0.092535 0 0.018208 -0.09154 0 0.024156 -0.090153 0 0.030001 -0.08838 0 0.035717 -0.086229 0 0.04128 -0.083708 0 0.046667 -0.080829 0 0.051853 -0.077604 0 0.056818 -0.074046 0 0.061539 -0.070172 0 0.068354 -0.068354 0 0.006322 -0.09646 0 0.012618 -0.09584 0 0.018859 -0.094809 0 0.025019 -0.093373 0 0.031072 -0.091537 0 0.036993 -0.089308 0 0.042755 -0.086698 0 0.048333 -0.083716 0 0.053705 -0.080375 0 0.058847 -0.076691 0 0.063737 -0.072678 0 0.070711 -0.070711 0 0.00654 -0.099786 0 0.013053 -0.099144 0 0.019509 -0.098079 0 0.025882 -0.096593 0 0.032144 -0.094693 0 0.038268 -0.092388 0 0.044229 -0.089687 0 0.05 -0.086603 0 0.055557 -0.083147 0 0.060876 -0.079335 0 0.065935 -0.075184 0 0.09 0 0 0.067666 -0.059341 0 0.071402 -0.054789 0 0.074832 -0.050001 0 0.077942 -0.045 0 0.080719 -0.039806 0 0.083149 -0.034442 0 0.085224 -0.02893 0 0.086933 -0.023294 0 0.088271 -0.017558 0 0.08923 -0.011747 0 0.089807 -0.005886 0 0.093333 0 0 0.070172 -0.061539 0 0.074046 -0.056818 0 0.077604 -0.051853 0 0.080829 -0.046667 0 0.083708 -0.04128 0 0.086229 -0.035717 0 0.08838 -0.030001 0 0.090153 -0.024156 0 0.09154 -0.018208 0 0.092535 -0.012182 0 0.093133 -0.006104 0 0.096667 0 0 0.072678 -0.063737 0 0.076691 -0.058847 0 0.080375 -0.053705 0 0.083716 -0.048333 0 0.086698 -0.042755 0 0.089308 -0.036993 0 0.091537 -0.031072 0 0.093373 -0.025019 0 0.094809 -0.018859 0 0.09584 -0.012618 0 0.09646 -0.006322 0 0.1 0 0 0.075184 -0.065935 0 0.079335 -0.060876 0 0.083147 -0.055557 0 0.086603 -0.05 0 0.089687 -0.044229 0 0.092388 -0.038268 0 0.094693 -0.032144 0 0.096593 -0.025882 0 0.098079 -0.019509 0 0.099144 -0.013053 0 0.099786 -0.00654 0 0.06364 0.06364 0 0.089807 0.005886 0 0.08923 0.011747 0 0.088271 0.017558 0 0.086933 0.023294 0 0.085224 0.02893 0 0.083149 0.034442 0 0.080719 0.039806 0 0.077942 0.045 0 0.074832 0.050001 0 0.071402 0.054789 0 0.067666 0.059341 0 0.065997 0.065997 0 0.093133 0.006104 0 0.092535 0.012182 0 0.09154 0.018208 0 0.090153 0.024156 0 0.08838 0.030001 0 0.086229 0.035717 0 0.083708 0.04128 0 0.080829 0.046667 0 0.077604 0.051853 0 0.074046 0.056818 0 0.070172 0.061539 0 0.068354 0.068354 0 0.09646 0.006322 0 0.09584 0.012618 0 0.094809 0.018859 0 0.093373 0.025019 0 0.091537 0.031072 0 0.089308 0.036993 0 0.086698 0.042755 0 0.083716 0.048333 0 0.080375 0.053705 0 0.076691 0.058847 0 0.072678 0.063737 0 0.070711 0.070711 0 0.099786 0.00654 0 0.099144 0.013053 0 0.098079 0.019509 0 0.096593 0.025882 0 0.094693 0.032144 0 0.092388 0.038268 0 0.089687 0.044229 0 0.086603 0.05 0 0.083147 0.055557 0 0.079335 0.060876 0 0.075184 0.065935 0 0.059341 0.067666 0 0.054789 0.071402 0 0.050001 0.074832 0 0.045 0.077942 0 0.039806 0.080719 0 0.034442 0.083149 0 0.02893 0.085224 0 0.023294 0.086933 0 0.017558 0.088271 0 0.011747 0.08923 0 0.005886 0.089807 0 0.061539 0.070172 0 0.056818 0.074046 0 0.051853 0.077604 0 0.046667 0.080829 0 0.04128 0.083708 0 0.035717 0.086229 0 0.030001 0.08838 0 0.024156 0.090153 0 0.018208 0.09154 0 0.012182 0.092535 0 0.006104 0.093133 0 0.063737 0.072678 0 0.058847 0.076691 0 0.053705 0.080375 0 0.048333 0.083716 0 0.042755 0.086698 0 0.036993 0.089308 0 0.031072 0.091537 0 0.025019 0.093373 0 0.018859 0.094809 0 0.012618 0.09584 0 0.006322 0.09646 0 0.065935 0.075184 0 0.060876 0.079335 0 0.055557 0.083147 0 0.05 0.086603 0 0.044229 0.089687 0 0.038268 0.092388 0 0.032144 0.094693 0 0.025882 0.096593 0 0.019509 0.098079 0 0.013053 0.099144 0 0.00654 0.099786 0 
</DataArray>
</Points>
<Cells>
<DataArray Name="connectivity" format="ascii" type="Int64">