<?xml version="1.0"?>
<VTKFile byte_order="LittleEndian" type="UnstructuredGrid" version="0.1">
<UnstructuredGrid>
<Piece NumberOfCells="288" NumberOfPoints="384">
<PointData>
<DataArray Name="Warping_X" format="ascii" type="Float64">
-0.0267061 0.571988 0.0519327 0.128895 0.202987 0.272991 0.337781 0.3963 0.447609 0.490879 0.52542 0.5507 0.566291 0.617028 -0.0233502 0.0607576 0.143198 0.22254 0.297505 0.366881 0.429529 0.484433 0.53072 0.567619 0.59456 0.611113 0.663745 -0.0202418 0.0698332 0.157947 0.242749 0.322871 0.397006 0.463951 0.522607 0.572002 0.61136 0.640048 0.657597 0.712127 -0.0167767 0.079093 0.173109 0.263586 0.349071 0.428154 0.499543 0.562082 0.614738 0.656647 0.687136 0.705733 1.0005e-11 0.567706 0.553564 0.529805 0.496887 0.455379 0.406004 0.349624 0.28721 0.219848 0.148698 0.0749932 1.00091e-11 0.612225 0.59682 0.571101 0.535531 0.490717 0.437464 0.376678 0.309412 0.236832 0.160183 0.0807836 1.00089e-11 0.658407 0.641705 0.613939 0.575615 0.527403 0.470116 0.404758 0.332464 0.254471 0.172115 0.0867939 1.00053e-11 0.70624 0.688189 0.658324 0.617154 0.565392 0.503938 0.43386 0.356351 0.272738 0.184463 0.0930207 -0.571988 -0.0749932 -0.148698 -0.219848 -0.28721 -0.349624 -0.406004 -0.455379 -0.496887 -0.529805 -0.553564 -0.567706 -0.617028 -0.0807836 -0.160183 -0.236832 -0.309412 -0.376678 -0.437464 -0.490717 -0.535531 -0.571101 -0.59682 -0.612225 -0.663745 -0.0867939 -0.172115 -0.254471 -0.332464 -0.404758 -0.470116 -0.527403 -0.575615 -0.613939 -0.641705 -0.658407 -0.712127 -0.0930207 -0.184463 -0.272738 -0.356351 -0.43386 -0.503938 -0.565392 -0.617154 -0.658324 -0.688189 -0.70624 0.0267061 -0.566291 -0.5507 -0.52542 -0.490879 -0.447609 -0.3963 -0.337781 -0.272991 -0.202987 -0.128895 -0.0519327 0.0233502 -0.611113 -0.59456 -0.567619 -0.53072 -0.484433 -0.429529 -0.366881 -0.297505 -0.22254 -0.143198 -0.0607576 0.0202418 -0.657597 -0.640048 -0.61136 -0.572002 -0.522607 -0.463951 -0.397006 -0.322871 -0.242749 -0.157947 -0.0698332 0.0167767 -0.705733 -0.687136 -0.656647 -0.614738 -0.562082 -0.499543 -0.428154 -0.349071 -0.263586 -0.173109 -0.079093 0.627711 0.104664 0.181602 0.256112 0.326855 0.392552 0.452012 0.504166 0.548071 0.582929 0.608118 0.623134 0.673303 0.107656 0.190741 0.271223 0.347631 0.418602 0.482852 0.539227 0.586727 0.62447 0.651787 0.66817 0.720515 0.110814 0.200322 0.286966 0.36923 0.445643 0.514846 0.575591 0.626774 0.6675 0.69703 0.714812 0.76936 0.114245 0.210304 0.303323 0.391645 0.473687 0.547986 0.613232 0.668248 0.712046 0.743842 0.763073 -2.84601e-11 0.621721 0.605257 0.578551 0.542069 0.496404 0.442315 0.380715 0.312641 0.239252 0.161795 0.0815899 -2.84894e-11 0.66706 0.649533 0.620997 0.581928 0.532957 0.474932 0.408819 0.335738 0.256943 0.173766 0.0876286 -2.84715e-11 0.714007 0.695383 0.664933 0.623178 0.570814 0.508704 0.437915 0.35966 0.275267 0.186172 0.0938798 -2.84154e-11 0.762572 0.7428 0.710386 0.665854 0.609948 0.543622 0.468013 0.384399 0.294205 0.198983 0.100343 -0.627711 -0.0815899 -0.161795 -0.239252 -0.312641 -0.380715 -0.442315 -0.496404 -0.542069 -0.578551 -0.605257 -0.621721 -0.673303 -0.0876286 -0.173766 -0.256943 -0.335738 -0.408819 -0.474932 -0.532957 -0.581928 -0.620997 -0.649533 -0.66706 -0.720515 -0.0938798 -0.186172 -0.275267 -0.35966 -0.437915 -0.508704 -0.570814 -0.623178 -0.664933 -0.695383 -0.714007 -0.76936 -0.100343 -0.198983 -0.294205 -0.384399 -0.468013 -0.543622 -0.609948 -0.665854 -0.710386 -0.7428 -0.762572 -0.623134 -0.608118 -0.582929 -0.548071 -0.504166 -0.452012 -0.392552 -0.326855 -0.256112 -0.181602 -0.104664 -0.66817 -0.651787 -0.62447 -0.586727 -0.539227 -0.482852 -0.418602 -0.347631 -0.271223 -0.190741 -0.107656 -0.714812 -0.69703 -0.6675 -0.626774 -0.575591 -0.514846 -0.445643 -0.36923 -0.286966 -0.200322 -0.110814 -0.763073 -0.743842 -0.712046 -0.668248 -0.613232 -0.547986 -0.473687 -0.391645 -0.303323 -0.210304 -0.114245 
</DataArray>
<DataArray Name="Warping_Y" format="ascii" type="Float64">
-0.599786 0.0297149 -0.589128 -0.568917 -0.539375 -0.500933 -0.454202 -0.399883 -0.338864 -0.272088 -0.200661 -0.125727 -0.0485208 0.0294818 -0.645046 -0.633828 -0.612307 -0.580756 -0.539641 -0.489591 -0.431398 -0.365969 -0.294363 -0.217745 -0.137337 -0.0544843 0.0292296 -0.69204 -0.680205 -0.657337 -0.623701 -0.579817 -0.526343 -0.4641 -0.39412 -0.317502 -0.235478 -0.14941 -0.0606856 0.0289559 -0.740712 -0.728235 -0.70399 -0.668223 -0.621457 -0.564419 -0.49802 -0.4233 -0.341489 -0.253882 -0.161925 -0.0671257 0.622614 0.107683 0.184089 0.257691 0.327262 0.391666 0.449807 0.500753 0.543631 0.577758 0.602537 0.61757 0.666061 0.113171 0.195192 0.27422 0.348913 0.41806 0.480504 0.535199 0.581253 0.617893 0.644508 0.660647 0.711181 0.118858 0.206722 0.29136 0.371391 0.445461 0.512349 0.570969 0.620305 0.659554 0.688078 0.705381 0.75793 0.12474 0.21865 0.309128 0.394673 0.473848 0.545369 0.608021 0.660778 0.702749 0.733223 0.751731 0.0297149 0.61757 0.602537 0.577758 0.543631 0.500753 0.449807 0.391666 0.327262 0.257691 0.184089 0.107683 0.0294818 0.660647 0.644508 0.617893 0.581253 0.535199 0.480504 0.41806 0.348913 0.27422 0.195192 0.113171 0.0292296 0.705381 0.688078 0.659554 0.620305 0.570969 0.512349 0.445461 0.371391 0.29136 0.206722 0.118858 0.0289559 0.751731 0.733223 0.702749 0.660778 0.608021 0.545369 0.473848 0.394673 0.309128 0.21865 0.12474 -0.599786 -0.0485208 -0.125727 -0.200661 -0.272088 -0.338864 -0.399883 -0.454202 -0.500933 -0.539375 -0.568917 -0.589128 -0.645046 -0.0544843 -0.137337 -0.217745 -0.294363 -0.365969 -0.431398 -0.489591 -0.539641 -0.580756 -0.612307 -0.633828 -0.69204 -0.0606856 -0.14941 -0.235478 -0.317502 -0.39412 -0.4641 -0.526343 -0.579817 -0.623701 -0.657337 -0.680205 -0.740712 -0.0671257 -0.161925 -0.253882 -0.341489 -0.4233 -0.49802 -0.564419 -0.621457 -0.668223 -0.70399 -0.728235 -0.0297331 -0.600114 -0.58976 -0.568886 -0.537922 -0.497502 -0.448357 -0.391428 -0.327722 -0.258425 -0.18477 -0.108089 -0.0295094 -0.6453 -0.633925 -0.611244 -0.577727 -0.534021 -0.480957 -0.419498 -0.350776 -0.276043 -0.19662 -0.11396 -0.0292621 -0.692074 -0.679631 -0.655074 -0.618908 -0.571815 -0.514661 -0.448537 -0.374623 -0.294247 -0.208878 -0.120018 -0.028989 -0.74041 -0.726877 -0.700403 -0.661478 -0.610861 -0.549511 -0.478537 -0.399255 -0.313062 -0.22152 -0.126264 0.577012 0.0488916 0.126376 0.201368 0.27253 0.338618 0.398438 0.45097 0.49526 0.530557 0.556211 0.571784 0.624183 0.0552197 0.138714 0.219524 0.296189 0.367382 0.431839 0.488416 0.536134 0.574146 0.601785 0.618555 0.673013 0.0617825 0.151506 0.238312 0.32069 0.397162 0.466391 0.527184 0.578432 0.619253 0.648947 0.66697 0.723486 0.0685841 0.164734 0.257762 0.346026 0.427955 0.502141 0.567255 0.622171 0.665911 0.697698 0.717015 -0.0297331 0.571784 0.556211 0.530557 0.49526 0.45097 0.398438 0.338618 0.27253 0.201368 0.126376 0.0488916 -0.0295094 0.618555 0.601785 0.574146 0.536134 0.488416 0.431839 0.367382 0.296189 0.219524 0.138714 0.0552197 -0.0292621 0.66697 0.648947 0.619253 0.578432 0.527184 0.466391 0.397162 0.32069 0.238312 0.151506 0.0617825 -0.028989 0.717015 0.697698 0.665911 0.622171 0.567255 0.502141 0.427955 0.346026 0.257762 0.164734 0.0685841 -0.108089 -0.18477 -0.258425 -0.327722 -0.391428 -0.448357 -0.497502 -0.537922 -0.568886 -0.58976 -0.600114 -0.11396 -0.19662 -0.276043 -0.350776 -0.419498 -0.480957 -0.534021 -0.577727 -0.611244 -0.633925 -0.6453 -0.120018 -0.208878 -0.294247 -0.374623 -0.448537 -0.514661 -0.571815 -0.618908 -0.655074 -0.679631 -0.692074 -0.126264 -0.22152 -0.313062 -0.399255 -0.478537 -0.549511 -0.610861 -0.661478 -0.700403 -0.726877 -0.74041 
</DataArray>
<DataArray Name="Warping_Z" format="ascii" type="Float64">
0 0 0 0 0 0 0 0 0 0 0 0 0 0 0 0 0 0 0 0 0 0 0 0 0 0 0 0 0 0 0 0 0 0 0 0 0 0 0 0 0 0 0 0 0 0 0 0 0 0 0 0 0 0 0 0 0 0 0 0 0 0 0 0 0 0 0 0 0 0 0 0 0 0 0 0 0 0 0 0 0 0 0 0 0 0 0 0 0 0 0 0 0 0 0 0 0 0 0 0 0 0 0 0 0 0 0 0 0 0 0 0 0 0 0 0 0 0 0 0 0 0 0 0 0 0 0 0 0 0 0 0 0 0 0 0 0 0 0 0 0 0 0 0 0 0 0 0 0 0 0 0 0 0 0 0 0 0 0 0 0 0 0 0 0 0 0 0 0 0 0 0 0 0 0 0 0 0 0 0 0 0 0 0 0 0 0 0 0 0 0 0 0 0 0 0 0 0 0 0 0 0 0 0 0 0 0 0 0 0 0 0 0 0 0 0 0 0 0 0 0 0 0 0 0 0 0 0 0 0 0 0 0 0 0 0 0 0 0 0 0 0 0 0 0 0 0 0 0 0 0 0 0 0 0 0 0 0 0 0 0 0 0 0 0 0 0 0 0 0 0 0 0 0 0 0 0 0 0 0 0 0 0 0 0 0 0 0 0 0 0 0 0 0 0 0 0 0 0 0 0 0 0 0 0 0 0 0 0 0 0 0 0 0 0 0 0 0 0 0 0 0 0 0 0 0 0 0 0 0 0 0 0 0 0 0 0 0 0 0 0 0 0 0 0 0 0 0 0 0 0 0 0 0 0 0 0 0 0 0 0 0 0 0 0 0 0 0 0 0 0 0 0 0 0 0 0 0 0 0 0 0 0 0 
</DataArray>
</PointData>
<CellData>
<DataArray Name="MaterialId" format="ascii" type="Float64">
1 1 1 1 1 1 1 1 1 1 1 1 1 1 1 1 1 1 1 1 1 1 1 1 1 1 1 1 1 1 1 1 1 1 1 1 1 1 1 1 1 1 1 1 1 1 1 1 1 1 1 1 1 1 1 1 1 1 1 1 1 1 1 1 1 1 1 1 1 1 1 1 1 1 1 1 1 1 1 1 1 1 1 1 1 1 1 1 1 1 1 1 1 1 1 1 1 1 1 1 1 1 1 1 1 1 1 1 1 1 1 1 1 1 1 1 1 1 1 1 1 1 1 1 1 1 1 1 1 1 1 1 1 1 1 1 1 1 1 1 1 1 1 1 2 2 2 2 2 2 2 2 2 2 2 2 2 2 2 2 2 2 2 2 2 2 2 2 2 2 2 2 2 2 2 2 2 2 2 2 2 2 2 2 2 2 2 2 2 2 2 2 2 2 2 2 2 2 2 2 2 2 2 2 2 2 2 2 2 2 2 2 2 2 2 2 2 2 2 2 2 2 2 2 2 2 2 2 2 2 2 2 2 2 2 2 2 2 2 2 2 2 2 2 2 2 2 2 2 2 2 2 2 2 2 2 2 2 2 2 2 2 2 2 2 2 2 2 2 2 2 2 2 2 2 2 2 2 2 2 2 2 2 2 2 2 2 2 
</DataArray>
<DataArray Name="FiberAngle" format="ascii" type="Float64">
0 0 0 0 0 0 0 0 0 0 0 0 0 0 0 0 0 0 0 0 0 0 0 0 0 0 0 0 0 0 0 0 0 0 0 0 0 0 0 0 0 0 0 0 0 0 0 0 0 0 0 0 0 0 0 0 0 0 0 0 0 0 0 0 0 0 0 0 0 0 0 0 0 0 0 0 0 0 0 0 0 0 0 0 0 0 0 0 0 0 0 0 0 0 0 0 0 0 0 0 0 0 0 0 0 0 0 0 0 0 0 0 0 0 0 0 0 0 0 0 0 0 0 0 0 0 0 0 0 0 0 0 0 0 0 0 0 0 0 0 0 0 0 0 0 0 0 0 0 0 0 0 0 0 0 0 0 0 0 0 0 0 0 0 0 0 0 0 0 0 0 0 0 0 0 0 0 0 0 0 0 0 0 0 0 0 0 0 0 0 0 0 0 0 0 0 0 0 0 0 0 0 0 0 0 0 0 0 0 0 0 0 0 0 0 0 0 0 0 0 0 0 0 0 0 0 0 0 0 0 0 0 0 0 0 0 0 0 0 0 0 0 0 0 0 0 0 0 0 0 0 0 0 0 0 0 0 0 0 0 0 0 0 0 0 0 0 0 0 0 0 0 0 0 0 0 0 0 0 0 0 0 0 0 0 0 0 0 
</DataArray>
<DataArray Name="Strain_11" format="ascii" type="Float64">
-13.6189 -13.5633 -13.446 -13.2702 -13.0374 -12.7484 -12.4044 -12.0072 -11.5586 -11.0604 -10.5152 -9.92516 -14.0625 -14.001 -13.8802 -13.7008 -13.4628 -13.167 -12.815 -12.4079 -11.9479 -11.4366 -10.8764 -10.2696 -14.5039 -14.4417 -14.3186 -14.1351 -13.8913 -13.5883 -13.2274 -12.8102 -12.338 -11.813 -11.2373 -10.6132 -9.29291 -8.62137 -7.91333 -7.17205 -6.4006 -5.60222 -4.7806 -3.93875 -3.08065 -2.20957 -1.32945 -0.443755 -9.61875 -8.92666 -8.19636 -7.43081 -6.63356 -5.80782 -4.95699 -4.08509 -3.19563 -2.29242 -1.37936 -0.460452 -9.94324 -9.23029 -8.47725 -7.68748 -6.86426 -6.011 -5.13156 -4.22952 -3.30906 -2.3742 -1.4286 -0.476899 0.443755 1.32945 2.20957 3.08065 3.93875 4.7806 5.60222 6.4006 7.17205 7.91333 8.62137 9.29291 0.460452 1.37936 2.29242 3.19563 4.08509 4.95699 5.80782 6.63356 7.43081 8.19636 8.92666 9.61875 0.476899 1.4286 2.3742 3.30906 4.22952 5.13156 6.011 6.86426 7.68748 8.47725 9.23029 9.94324 9.92516 10.5152 11.0604 11.5586 12.0072 12.4044 12.7484 13.0374 13.2702 13.446 13.5633 13.6189 10.2696 10.8764 11.4366 11.9479 12.4079 12.815 13.167 13.4628 13.7008 13.8802 14.001 14.0625 10.6132 11.2373 11.813 12.338 12.8102 13.2274 13.5883 13.8913 14.1351 14.3186 14.4417 14.5039 13.517 13.453 13.3394 13.1684 12.9413 12.6592 12.3231 11.9344 11.4947 11.0056 10.4694 9.88802 14.0587 14.0012 13.8812 13.701 13.4625 13.1661 12.8133 12.4056 11.9448 11.4329 10.8719 10.2646 14.604 14.5454 14.4186 14.2303 13.9805 13.6704 13.3014 12.8754 12.3941 11.8598 11.275 10.6421 9.26391 8.59978 7.89827 7.16252 6.39555 5.60056 4.78129 3.94082 3.08323 2.21195 1.33109 0.44434 9.61329 8.92089 8.19043 7.42488 6.62782 5.80242 4.95211 4.08087 3.1922 2.28989 1.37781 0.45993 9.96409 9.24388 8.48458 7.68966 6.86247 6.00643 5.12539 4.22281 3.30278 2.36912 1.42531 0.475762 -0.44434 -1.33109 -2.21195 -3.08323 -3.94082 -4.78129 -5.60056 -6.39555 -7.16252 -7.89827 -8.59978 -9.26391 -0.45993 -1.37781 -2.28989 -3.1922 -4.08087 -4.95211 -5.80242 -6.62782 -7.42488 -8.19043 -8.92089 -9.61329 -0.475762 -1.42531 -2.36912 -3.30278 -4.22281 -5.12539 -6.00643 -6.86247 -7.68966 -8.48458 -9.24388 -9.96409 -9.88802 -10.4694 -11.0056 -11.4947 -11.9344 -12.3231 -12.6592 -12.9413 -13.1684 -13.3394 -13.453 -13.517 -10.2646 -10.8719 -11.4329 -11.9448 -12.4056 -12.8133 -13.1661 -13.4625 -13.701 -13.8812 -14.0012 -14.0587 -10.6421 -11.275 -11.8598 -12.3941 -12.8754 -13.3014 -13.6704 -13.9805 -14.2303 -14.4186 -14.5454 -14.604 
</DataArray>
<DataArray Name="Strain_22" format="ascii" type="Float64">
-13.5547 -13.4979 -13.382 -13.2109 -12.9831 -12.7003 -12.3633 -11.9734 -11.5324 -11.042 -10.5041 -9.921 -14.0632 -14.0007 -13.8819 -13.7021 -13.4636 -13.1675 -12.8149 -12.4075 -11.9469 -11.4352 -10.8746 -10.2674 -14.5683 -14.5024 -14.3793 -14.191 -13.9423 -13.6334 -13.2658 -12.8413 -12.3618 -11.8294 -11.2464 -10.6157 -9.29497 -8.62875 -7.92503 -7.18684 -6.41739 -5.61982 -4.79769 -3.95448 -3.09386 -2.21964 -1.33569 -0.445886 -9.6162 -8.92388 -8.19338 -7.42788 -6.63057 -5.80497 -4.95453 -4.08282 -3.19379 -2.29111 -1.37857 -0.460164 -9.93975 -9.22168 -8.46458 -7.67181 -6.84681 -5.99296 -5.11394 -4.2136 -3.29565 -2.36393 -1.42228 -0.474732 0.445886 1.33569 2.21964 3.09386 3.95448 4.79769 5.61982 6.41739 7.18684 7.92503 8.62875 9.29497 0.460164 1.37857 2.29111 3.19379 4.08282 4.95453 5.80497 6.63057 7.42788 8.19338 8.92388 9.6162 0.474732 1.42228 2.36393 3.29565 4.2136 5.11394 5.99296 6.84681 7.67181 8.46458 9.22168 9.93975 9.921 10.5041 11.042 11.5324 11.9734 12.3633 12.7003 12.9831 13.2109 13.382 13.4979 13.5547 10.2674 10.8746 11.4352 11.9469 12.4075 12.8149 13.1675 13.4636 13.7021 13.8819 14.0007 14.0632 10.6157 11.2464 11.8294 12.3618 12.8413 13.2658 13.6334 13.9423 14.191 14.3793 14.5024 14.5683 13.5663 13.5229 13.4036 13.2288 12.9968 12.7088 12.3661 11.9703 11.5231 11.0268 10.4833 9.89524 14.0613 13.9985 13.8774 13.6984 13.4606 13.1652 12.8134 12.4069 11.9471 11.4362 10.8764 10.2699 14.5531 14.4758 14.3542 14.1703 13.9262 13.6229 13.2615 12.8435 12.3706 11.8447 11.2678 10.6425 9.26507 8.59568 7.8899 7.15088 6.38183 5.58591 4.76664 3.9274 3.07171 2.20323 1.3256 0.442482 9.61931 8.92747 8.19731 7.43199 6.6347 5.80896 4.9582 4.08605 3.19644 2.29308 1.37979 0.460574 9.97115 9.25659 8.50178 7.70999 6.88463 6.02907 5.14705 4.24249 3.31929 2.38146 1.43306 0.47837 -0.442482 -1.3256 -2.20323 -3.07171 -3.9274 -4.76664 -5.58591 -6.38183 -7.15088 -7.8899 -8.59568 -9.26507 -0.460574 -1.37979 -2.29308 -3.19644 -4.08605 -4.9582 -5.80896 -6.6347 -7.43199 -8.19731 -8.92747 -9.61931 -0.47837 -1.43306 -2.38146 -3.31929 -4.24249 -5.14705 -6.02907 -6.88463 -7.70999 -8.50178 -9.25659 -9.97115 -9.89524 -10.4833 -11.0268 -11.5231 -11.9703 -12.3661 -12.7088 -12.9968 -13.2288 -13.4036 -13.5229 -13.5663 -10.2699 -10.8764 -11.4362 -11.9471 -12.4069 -12.8134 -13.1652 -13.4606 -13.6984 -13.8774 -13.9985 -14.0613 -10.6425 -11.2678 -11.8447 -12.3706 -12.8435 -13.2615 -13.6229 -13.9262 -14.1703 -14.3542 -14.4758 -14.5531 
</DataArray>
<DataArray Name="Strain_12" format="ascii" type="Float64">
0.00306061 -0.0147815 -0.0211759 -0.0288559 -0.0358438 -0.0414983 -0.0461526 -0.04945 -0.051365 -0.0520061 -0.0513199 -0.0493613 -0.0256961 0.00251426 0.00121585 0.00136701 0.00182227 0.00186202 0.00214112 0.00222502 0.00202946 0.00201371 0.00168935 0.00143283 0.0226757 0.0119259 0.0203613 0.0278396 0.0343773 0.0399852 0.0442093 0.0473742 0.0491818 0.0496512 0.0488427 0.0468788 -0.0463784 -0.0424155 -0.037842 -0.0326619 -0.0272095 -0.02192 -0.0166766 -0.0120325 -0.00799778 -0.00479935 -0.0026194 -0.00147606 0.00103227 0.000507567 0.000138779 -0.000492335 -0.00103548 -0.00146379 -0.00199895 -0.00243849 -0.00279263 -0.00310019 -0.00326995 -0.00340008 0.0438291 0.0399021 0.0352063 0.0301393 0.0248456 0.0194033 0.0143524 0.00968999 0.00573838 0.00260177 0.000386089 -0.000695278 -0.00147606 -0.0026194 -0.00479935 -0.00799778 -0.0120325 -0.0166766 -0.02192 -0.0272095 -0.0326619 -0.037842 -0.0424155 -0.0463784 -0.00340008 -0.00326995 -0.00310019 -0.00279263 -0.00243849 -0.00199895 -0.00146379 -0.00103548 -0.000492335 0.000138779 0.000507567 0.00103227 -0.000695278 0.000386089 0.00260177 0.00573838 0.00968999 0.0143524 0.0194033 0.0248456 0.0301393 0.0352063 0.0399021 0.0438291 -0.0493613 -0.0513199 -0.0520061 -0.051365 -0.04945 -0.0461526 -0.0414983 -0.0358438 -0.0288559 -0.0211759 -0.0147815 0.00306061 0.00143283 0.00168935 0.00201371 0.00202946 0.00222502 0.00214112 0.00186202 0.00182227 0.00136701 0.00121585 0.00251426 -0.0256961 0.0468788 0.0488427 0.0496512 0.0491818 0.0473742 0.0442093 0.0399852 0.0343773 0.0278396 0.0203613 0.0119259 0.0226757 0.00406063 -0.0154526 -0.0201274 -0.0284919 -0.0350171 -0.0408351 -0.0453646 -0.048762 -0.0509053 -0.0516948 -0.0512712 -0.0497158 -0.031071 0.00670315 0.00188357 0.00341108 0.003949 0.00469779 0.00486782 0.0049453 0.00499982 0.00449395 0.00406336 0.00323151 0.0276117 0.0112328 0.0228994 0.0310338 0.038233 0.0441509 0.0490693 0.0522922 0.0540849 0.0544258 0.0532897 0.0507579 -0.0470558 -0.0435777 -0.0392889 -0.0346471 -0.0297764 -0.0247066 -0.0200424 -0.0156469 -0.0119367 -0.00900605 -0.00694803 -0.0059259 0.0023128 0.00132934 6.77648e-06 -0.00108669 -0.00232861 -0.00362969 -0.00470915 -0.00573794 -0.00661337 -0.00727245 -0.00777142 -0.00798093 0.0470546 0.0423307 0.0368893 0.0308033 0.0244695 0.0183112 0.0122685 0.00687195 0.00219901 -0.00147582 -0.00396226 -0.00528443 -0.0059259 -0.00694803 -0.00900605 -0.0119367 -0.0156469 -0.0200424 -0.0247066 -0.0297764 -0.0346471 -0.0392889 -0.0435777 -0.0470558 -0.00798093 -0.00777142 -0.00727245 -0.00661337 -0.00573794 -0.00470915 -0.00362969 -0.00232861 -0.00108669 6.77655e-06 0.00132934 0.0023128 -0.00528443 -0.00396226 -0.00147582 0.00219901 0.00687195 0.0122685 0.0183112 0.0244695 0.0308033 0.0368893 0.0423307 0.0470546 -0.0497158 -0.0512712 -0.0516948 -0.0509053 -0.048762 -0.0453646 -0.0408351 -0.0350171 -0.0284919 -0.0201274 -0.0154526 0.00406063 0.00323151 0.00406336 0.00449395 0.00499982 0.0049453 0.00486782 0.00469779 0.003949 0.00341108 0.00188357 0.00670315 -0.031071 0.0507579 0.0532897 0.0544258 0.0540849 0.0522922 0.0490693 0.0441509 0.038233 0.0310338 0.0228994 0.0112328 0.0276117 
</DataArray>
<DataArray Name="Strain_13" format="ascii" type="Float64">
0 0 0 0 0 0 0 0 0 0 0 0 0 0 0 0 0 0 0 0 0 0 0 0 0 0 0 0 0 0 0 0 0 0 0 0 0 0 0 0 0 0 0 0 0 0 0 0 0 0 0 0 0 0 0 0 0 0 0 0 0 0 0 0 0 0 0 0 0 0 0 0 0 0 0 0 0 0 0 0 0 0 0 0 0 0 0 0 0 0 0 0 0 0 0 0 0 0 0 0 0 0 0 0 0 0 0 0 0 0 0 0 0 0 0 0 0 0 0 0 0 0 0 0 0 0 0 0 0 0 0 0 0 0 0 0 0 0 0 0 0 0 0 0 0 0 0 0 0 0 0 0 0 0 0 0 0 0 0 0 0 0 0 0 0 0 0 0 0 0 0 0 0 0 0 0 0 0 0 0 0 0 0 0 0 0 0 0 0 0 0 0 0 0 0 0 0 0 0 0 0 0 0 0 0 0 0 0 0 0 0 0 0 0 0 0 0 0 0 0 0 0 0 0 0 0 0 0 0 0 0 0 0 0 0 0 0 0 0 0 0 0 0 0 0 0 0 0 0 0 0 0 0 0 0 0 0 0 0 0 0 0 0 0 0 0 0 0 0 0 0 0 0 0 0 0 0 0 0 0 0 0 0 0 0 0 0 0 
</DataArray>
<DataArray Name="Strain_23" format="ascii" type="Float64">
0 0 0 0 0 0 0 0 0 0 0 0 0 0 0 0 0 0 0 0 0 0 0 0 0 0 0 0 0 0 0 0 0 0 0 0 0 0 0 0 0 0 0 0 0 0 0 0 0 0 0 0 0 0 0 0 0 0 0 0 0 0 0 0 0 0 0 0 0 0 0 0 0 0 0 0 0 0 0 0 0 0 0 0 0 0 0 0 0 0 0 0 0 0 0 0 0 0 0 0 0 0 0 0 0 0 0 0 0 0 0 0 0 0 0 0 0 0 0 0 0 0 0 0 0 0 0 0 0 0 0 0 0 0 0 0 0 0 0 0 0 0 0 0 0 0 0 0 0 0 0 0 0 0 0 0 0 0 0 0 0 0 0 0 0 0 0 0 0 0 0 0 0 0 0 0 0 0 0 0 0 0 0 0 0 0 0 0 0 0 0 0 0 0 0 0 0 0 0 0 0 0 0 0 0 0 0 0 0 0 0 0 0 0 0 0 0 0 0 0 0 0 0 0 0 0 0 0 0 0 0 0 0 0 0 0 0 0 0 0 0 0 0 0 0 0 0 0 0 0 0 0 0 0 0 0 0 0 0 0 0 0 0 0 0 0 0 0 0 0 0 0 0 0 0 0 0 0 0 0 0 0 0 0 0 0 0 0 
</DataArray>
<DataArray Name="Strain_33" format="ascii" type="Float64">
0.0915682 0.0911763 0.090394 0.0892242 0.0876725 0.0857455 0.0834513 0.0807995 0.0778018 0.074471 0.0708215 0.0668688 0.0948982 0.094492 0.093681 0.0924687 0.0908608 0.0888635 0.0864858 0.0837377 0.080631 0.077179 0.0733968 0.0693003 0.0982283 0.0978075 0.096968 0.0957135 0.094049 0.0919815 0.0895202 0.086676 0.0834602 0.079887 0.075972 0.0717317 0.0626292 0.0581217 0.0533652 0.0483802 0.0431882 0.0378112 0.0322725 0.0265952 0.020804 0.0149237 0.00897975 0.0029975 0.0649067 0.0602352 0.0553058 0.0501395 0.0447587 0.0391862 0.0334457 0.027562 0.0215605 0.0154668 0.0093065 0.0031065 0.0671843 0.0623487 0.0572462 0.0518988 0.0463293 0.0405613 0.0346192 0.0285292 0.0223173 0.0160097 0.00963325 0.0032155 -0.0029975 -0.00897975 -0.0149237 -0.020804 -0.0265952 -0.0322725 -0.0378112 -0.0431882 -0.0483802 -0.0533653 -0.0581217 -0.0626292 -0.0031065 -0.0093065 -0.0154668 -0.0215605 -0.027562 -0.0334457 -0.0391862 -0.0447587 -0.0501395 -0.0553058 -0.0602353 -0.0649067 -0.0032155 -0.00963325 -0.0160097 -0.0223173 -0.0285293 -0.0346192 -0.0405612 -0.0463293 -0.0518988 -0.0572462 -0.0623487 -0.0671843 -0.0668688 -0.0708215 -0.074471 -0.0778018 -0.0807995 -0.0834513 -0.0857455 -0.0876725 -0.0892242 -0.090394 -0.0911762 -0.0915682 -0.0693003 -0.0733967 -0.077179 -0.080631 -0.0837377 -0.0864858 -0.0888635 -0.0908607 -0.0924688 -0.093681 -0.094492 -0.0948983 -0.0717317 -0.075972 -0.079887 -0.0834602 -0.086676 -0.0895203 -0.0919815 -0.094049 -0.0957135 -0.096968 -0.0978075 -0.0982283 -0.0915682 -0.0911763 -0.090394 -0.0892242 -0.0876725 -0.0857455 -0.0834513 -0.0807995 -0.0778018 -0.074471 -0.0708215 -0.0668688 -0.0948982 -0.094492 -0.093681 -0.0924687 -0.0908608 -0.0888635 -0.0864858 -0.0837377 -0.080631 -0.077179 -0.0733968 -0.0693003 -0.0982283 -0.0978075 -0.096968 -0.0957135 -0.094049 -0.0919815 -0.0895202 -0.086676 -0.0834602 -0.079887 -0.075972 -0.0717317 -0.0626292 -0.0581217 -0.0533652 -0.0483802 -0.0431882 -0.0378112 -0.0322725 -0.0265952 -0.020804 -0.0149237 -0.00897975 -0.0029975 -0.0649067 -0.0602352 -0.0553058 -0.0501395 -0.0447587 -0.0391862 -0.0334457 -0.027562 -0.0215605 -0.0154668 -0.0093065 -0.0031065 -0.0671843 -0.0623487 -0.0572462 -0.0518988 -0.0463293 -0.0405613 -0.0346192 -0.0285292 -0.0223173 -0.0160097 -0.00963325 -0.0032155 0.0029975 0.00897975 0.0149237 0.020804 0.0265952 0.0322725 0.0378112 0.0431882 0.0483802 0.0533653 0.0581217 0.0626292 0.0031065 0.0093065 0.0154668 0.0215605 0.027562 0.0334457 0.0391862 0.0447587 0.0501395 0.0553058 0.0602353 0.0649067 0.0032155 0.00963325 0.0160097 0.0223173 0.0285293 0.0346192 0.0405612 0.0463293 0.0518988 0.0572462 0.0623487 0.0671843 0.0668688 0.0708215 0.074471 0.0778018 0.0807995 0.0834513 0.0857455 0.0876725 0.0892242 0.090394 0.0911762 0.0915682 0.0693003 0.0733967 0.077179 0.080631 0.0837377 0.0864858 0.0888635 0.0908607 0.0924688 0.093681 0.094492 0.0948983 0.0717317 0.075972 0.079887 0.0834602 0.086676 0.0895203 0.0919815 0.094049 0.0957135 0.096968 0.0978075 0.0982283 
</DataArray>
<DataArray Name="Stress_11" format="ascii" type="Float64">
-1887.19 -1879.44 -1863.21 -1838.96 -1806.8 -1766.89 -1719.38 -1664.49 -1602.47 -1533.59 -1458.17 -1376.52 -1950.5 -1941.95 -1925.25 -1900.36 -1867.33 -1826.29 -1777.45 -1720.99 -1657.16 -1586.24 -1508.52 -1424.35 -2013.49 -2004.76 -1987.69 -1962.1 -1928.15 -1885.96 -1835.72 -1777.65 -1711.96 -1638.93 -1558.88 -1472.13 -1289 -1196 -1097.92 -995.185 -888.239 -777.525 -663.55 -546.747 -427.657 -306.75 -184.57 -61.6086 -1334.06 -1238.06 -1136.76 -1030.58 -920.001 -805.474 -687.474 -566.546 -443.187 -317.926 -191.298 -63.8574 -1379.04 -1280.01 -1175.45 -1065.83 -951.598 -833.233 -711.266 -586.199 -458.6 -329.02 -197.973 -66.0865 61.6086 184.57 306.75 427.657 546.747 663.55 777.525 888.239 995.185 1097.92 1196 1289 63.8574 191.298 317.926 443.187 566.546 687.474 805.474 920.001 1030.58 1136.76 1238.06 1334.06 66.0865 197.973 329.02 458.6 586.199 711.266 833.233 951.598 1065.83 1175.45 1280.01 1379.04 1376.52 1458.17 1533.59 1602.47 1664.49 1719.38 1766.89 1806.8 1838.96 1863.21 1879.44 1887.19 1424.35 1508.52 1586.24 1657.16 1720.99 1777.45 1826.29 1867.33 1900.36 1925.25 1941.95 1950.5 1472.13 1558.88 1638.93 1711.96 1777.65 1835.72 1885.96 1928.15 1962.1 1987.69 2004.76 2013.49 1.87619 1.86788 1.85197 1.82814 1.79651 1.75722 1.71042 1.65631 1.59511 1.52708 1.4525 1.37168 1.95003 1.94191 1.92524 1.90028 1.86721 1.82613 1.77723 1.72071 1.65682 1.58584 1.50807 1.42386 2.02419 2.01554 1.9981 1.97211 1.93762 1.89479 1.84382 1.78496 1.71843 1.64455 1.56366 1.47609 1.28495 1.19269 1.09527 0.993127 0.88669 0.776399 0.662765 0.546225 0.427328 0.306559 0.184472 0.061579 1.33354 1.23752 1.13621 1.03004 0.919478 0.804985 0.687033 0.566166 0.44288 0.317699 0.191159 0.0638108 1.38223 1.28249 1.1773 1.06713 0.952449 0.833729 0.711499 0.586256 0.458558 0.328943 0.197907 0.0660612 -0.061579 -0.184472 -0.306559 -0.427328 -0.546225 -0.662765 -0.776399 -0.88669 -0.993127 -1.09527 -1.19269 -1.28495 -0.0638108 -0.191159 -0.317699 -0.44288 -0.566166 -0.687033 -0.804985 -0.919478 -1.03004 -1.13621 -1.23752 -1.33354 -0.0660612 -0.197907 -0.328943 -0.458558 -0.586256 -0.711499 -0.833729 -0.952449 -1.06713 -1.1773 -1.28249 -1.38223 -1.37168 -1.4525 -1.52708 -1.59511 -1.65631 -1.71042 -1.75722 -1.79651 -1.82814 -1.85197 -1.86788 -1.87619 -1.42386 -1.50807 -1.58584 -1.65682 -1.72071 -1.77723 -1.82613 -1.86721 -1.90028 -1.92524 -1.94191 -1.95003 -1.47609 -1.56366 -1.64455 -1.71843 -1.78496 -1.84382 -1.89479 -1.93762 -1.97211 -1.9981 -2.01554 -2.02419 
</DataArray>
<DataArray Name="Stress_22" format="ascii" type="Float64">
-1881.84 -1874 -1857.88 -1834.02 -1802.28 -1762.88 -1715.95 -1661.67 -1600.29 -1532.06 -1457.24 -1376.17 -1950.56 -1941.92 -1925.39 -1900.46 -1867.4 -1826.33 -1777.44 -1720.95 -1657.08 -1586.11 -1508.37 -1424.16 -2018.86 -2009.82 -1992.74 -1966.76 -1932.4 -1889.72 -1838.92 -1780.25 -1713.94 -1640.29 -1559.64 -1472.34 -1289.17 -1196.62 -1098.89 -996.418 -889.639 -778.991 -664.975 -548.058 -428.757 -307.589 -185.09 -61.7862 -1333.85 -1237.83 -1136.52 -1030.34 -919.753 -805.237 -687.268 -566.356 -443.034 -317.816 -191.232 -63.8334 -1378.75 -1279.3 -1174.4 -1064.52 -950.143 -831.729 -709.798 -584.872 -457.482 -328.164 -197.447 -65.9059 61.7862 185.09 307.589 428.757 548.058 664.975 778.991 889.639 996.418 1098.89 1196.62 1289.17 63.8334 191.232 317.816 443.034 566.356 687.268 805.237 919.753 1030.34 1136.52 1237.83 1333.85 65.9059 197.447 328.164 457.482 584.872 709.798 831.729 950.143 1064.52 1174.4 1279.3 1378.75 1376.17 1457.24 1532.06 1600.29 1661.67 1715.95 1762.88 1802.28 1834.02 1857.88 1874 1881.84 1424.16 1508.37 1586.11 1657.08 1720.95 1777.44 1826.33 1867.4 1900.46 1925.39 1941.92 1950.56 1472.34 1559.64 1640.29 1713.94 1780.25 1838.92 1889.72 1932.4 1966.76 1992.74 2009.82 2018.86 1.8803 1.87371 1.85732 1.83318 1.80113 1.76135 1.714 1.6593 1.59749 1.52884 1.45366 1.37228 1.95025 1.94169 1.92493 1.90006 1.86706 1.82605 1.77723 1.72082 1.65701 1.58612 1.50844 1.4243 2.01995 2.00974 1.99273 1.9671 1.93309 1.89083 1.84049 1.7823 1.71648 1.6433 1.56306 1.47612 1.28504 1.19234 1.09457 0.992157 0.885547 0.775177 0.661544 0.545106 0.426369 0.305832 0.184014 0.0614242 1.33405 1.23807 1.13679 1.03063 0.920051 0.805529 0.687541 0.566598 0.443233 0.317965 0.191324 0.0638645 1.38282 1.28355 1.17873 1.06883 0.954296 0.835615 0.713304 0.587896 0.459934 0.329971 0.198553 0.0662785 -0.0614242 -0.184014 -0.305832 -0.426369 -0.545106 -0.661544 -0.775177 -0.885547 -0.992157 -1.09457 -1.19234 -1.28504 -0.0638645 -0.191324 -0.317965 -0.443233 -0.566598 -0.687541 -0.805529 -0.920051 -1.03063 -1.13679 -1.23807 -1.33405 -0.0662785 -0.198553 -0.329971 -0.459934 -0.587896 -0.713304 -0.835615 -0.954296 -1.06883 -1.17873 -1.28355 -1.38282 -1.37228 -1.45366 -1.52884 -1.59749 -1.6593 -1.714 -1.76135 -1.80113 -1.83318 -1.85732 -1.87371 -1.8803 -1.4243 -1.50844 -1.58612 -1.65701 -1.72082 -1.77723 -1.82605 -1.86706 -1.90006 -1.92493 -1.94169 -1.95025 -1.47612 -1.56306 -1.6433 -1.71648 -1.7823 -1.84049 -1.89083 -1.93309 -1.9671 -1.99273 -2.00974 -2.01995 
</DataArray>
<DataArray Name="Stress_12" format="ascii" type="Float64">