<?xml version="1.0"?>
<VTKFile byte_order="LittleEndian" type="UnstructuredGrid" version="0.1">
<UnstructuredGrid>
<Piece NumberOfCells="288" NumberOfPoints="384">
<PointData>
<DataArray Name="Warping_X" format="ascii" type="Float64">
-0 -0 0 0 0 0 0 0 0 0 0 0 0 0 0 0 0 0 0 0 0 0 0 0 0 0 0 0 0 0 0 0 0 0 0 0 0 0 0 0 0 0 0 0 0 0 0 0 0 0 0 0 0 0 0 0 0 0 0 0 0 0 0 0 0 0 0 0 0 0 0 0 0 0 0 0 0 0 0 0 0 0 0 0 0 0 0 0 0 0 0 0 0 0 0 0 0 0 0 0 -0 0 0 0 0 0 0 0 0 0 0 0 0 0 0 0 0 0 0 0 0 0 0 0 0 0 0 0 0 0 0 0 0 0 0 0 0 0 0 0 0 0 0 0 0 0 0 0 0 0 0 0 0 0 0 0 0 0 0 0 0 0 0 0 0 0 0 0 0 0 0 0 0 0 0 0 0 0 0 0 0 0 0 0 0 0 0 0 0 0 0 0 0 0 0 0 0 0 0 0 0 0 0 0 0 0 0 0 -0 0 0 0 0 0 0 0 0 0 0 0 0 0 0 0 0 0 0 0 0 0 0 0 0 0 0 0 0 0 0 0 0 0 0 0 0 0 0 0 0 0 0 0 0 0 0 0 0 0 0 0 0 0 0 0 0 0 0 0 0 0 0 0 0 0 0 0 0 0 0 0 0 0 0 0 0 0 0 0 0 0 0 0 0 0 0 0 0 0 0 0 0 0 0 0 0 0 0 0 0 0 0 0 0 0 0 0 -0 0 0 0 0 0 0 0 0 0 0 0 0 0 0 0 0 0 0 0 0 0 0 0 0 0 0 0 0 0 0 0 0 0 0 0 0 0 0 0 0 0 0 0 0 0 0 0 0 0 0 0 0 0 0 0 0 0 0 0 0 0 0 0 0 0 0 0 
</DataArray>
<DataArray Name="Warping_Y" format="ascii" type="Float64">
0 -0 0 0 0 0 0 0 0 0 0 0 0 0 -0 0 0 0 0 0 0 0 0 0 0 0 0 0 0 0 0 0 0 0 0 0 0 0 0 0 0 0 0 0 0 0 0 0 0 0 0 0 -0 0 0 0 0 0 0 0 0 0 0 0 0 0 0 0 0 0 0 0 0 0 0 0 0 0 0 0 0 0 0 0 0 0 0 0 0 0 0 0 0 0 0 0 0 0 0 0 -0 0 0 0 0 0 0 0 0 0 0 0 0 0 0 0 0 0 0 0 0 0 0 0 0 0 0 0 0 0 0 0 0 0 0 0 0 0 0 0 0 0 0 0 0 0 0 0 0 0 0 0 0 0 0 0 0 0 0 0 0 0 0 0 0 0 0 0 0 0 0 0 0 0 0 0 0 0 0 0 0 0 0 0 0 0 0 0 0 0 0 0 0 0 0 0 0 0 0 0 0 0 0 0 0 0 0 0 0 0 0 0 0 0 0 0 0 0 0 0 -0 0 0 0 0 0 0 0 0 0 0 0 0 0 0 0 0 0 0 0 0 0 0 0 0 0 0 0 0 0 0 0 0 0 0 0 -0 0 0 0 0 0 0 0 0 0 0 0 0 0 0 0 0 0 0 0 0 0 0 0 0 0 0 0 0 0 0 0 0 0 0 0 0 0 0 0 0 0 0 0 0 0 0 0 -0 0 0 0 0 0 0 0 0 0 0 0 0 0 0 0 0 0 0 0 0 0 0 0 0 0 0 0 0 0 0 0 0 0 0 0 0 0 0 0 0 0 0 0 0 0 0 0 0 0 0 0 0 0 0 0 0 0 0 0 0 0 0 0 0 0 0 0 0 0 0 0 0 0 0 0 0 0 0 0 
</DataArray>
<DataArray Name="Warping_Z" format="ascii" type="Float64">
0 0 0 0 0 0 0 0 0 0 0 0 0 0 0 0 0 0 0 0 0 0 0 0 0 0 0 0 0 0 0 0 0 0 0 0 0 0 0 0 0 0 0 0 0 0 0 0 0 0 0 0 0 0 0 0 0 0 0 0 0 0 0 0 0 0 0 0 0 0 0 0 0 0 0 0 0 0 0 0 0 0 0 0 0 0 0 0 0 0 0 0 0 0 0 0 0 0 0 0 0 0 0 0 0 0 0 0 0 0 0 0 0 0 0 0 0 0 0 0 0 0 0 0 0 0 0 0 0 0 0 0 0 0 0 0 0 0 0 0 0 0 0 0 0 0 0 0 0 0 0 0 0 0 0 0 0 0 0 0 0 0 0 0 0 0 0 0 0 0 0 0 0 0 0 0 0 0 0 0 0 0 0 0 0 0 0 0 0 0 0 0 0 0 0 0 0 0 0 0 0 0 0 0 0 0 0 0 0 0 0 0 0 0 0 0 0 0 0 0 0 0 0 0 0 0 0 0 0 0 0 0 0 0 0 0 0 0 0 0 0 0 0 0 0 0 0 0 0 0 0 0 0 0 0 0 0 0 0 0 0 0 0 0 0 0 0 0 0 0 0 0 0 0 0 0 0 0 0 0 0 0 0 0 0 0 0 0 0 0 0 0 0 0 0 0 0 0 0 0 0 0 0 0 0 0 0 0 0 0 0 0 0 0 0 0 0 0 0 0 0 0 0 0 0 0 0 0 0 0 0 0 0 0 0 0 0 0 0 0 0 0 0 0 0 0 0 0 0 0 0 0 0 0 0 0 0 0 0 0 0 0 0 0 0 0 0 0 0 0 0 0 0 0 0 0 0 0 0 0 0 0 0 0 
</DataArray>
</PointData>
<CellData>
<DataArray Name="MaterialId" format="ascii" type="Float64">
1 1 1 1 1 1 1 1 1 1 1 1 1 1 1 1 1 1 1 1 1 1 1 1 1 1 1 1 1 1 1 1 1 1 1 1 1 1 1 1 1 1 1 1 1 1 1 1 1 1 1 1 1 1 1 1 1 1 1 1 1 1 1 1 1 1 1 1 1 1 1 1 1 1 1 1 1 1 1 1 1 1 1 1 1 1 1 1 1 1 1 1 1 1 1 1 1 1 1 1 1 1 1 1 1 1 1 1 1 1 1 1 1 1 1 1 1 1 1 1 1 1 1 1 1 1 1 1 1 1 1 1 1 1 1 1 1 1 1 1 1 1 1 1 2 2 2 2 2 2 2 2 2 2 2 2 2 2 2 2 2 2 2 2 2 2 2 2 2 2 2 2 2 2 2 2 2 2 2 2 2 2 2 2 2 2 2 2 2 2 2 2 2 2 2 2 2 2 2 2 2 2 2 2 2 2 2 2 2 2 2 2 2 2 2 2 2 2 2 2 2 2 2 2 2 2 2 2 2 2 2 2 2 2 2 2 2 2 2 2 2 2 2 2 2 2 2 2 2 2 2 2 2 2 2 2 2 2 2 2 2 2 2 2 2 2 2 2 2 2 2 2 2 2 2 2 2 2 2 2 2 2 2 2 2 2 2 2 
</DataArray>
<DataArray Name="FiberAngle" format="ascii" type="Float64">
0 0 0 0 0 0 0 0 0 0 0 0 0 0 0 0 0 0 0 0 0 0 0 0 0 0 0 0 0 0 0 0 0 0 0 0 0 0 0 0 0 0 0 0 0 0 0 0 0 0 0 0 0 0 0 0 0 0 0 0 0 0 0 0 0 0 0 0 0 0 0 0 0 0 0 0 0 0 0 0 0 0 0 0 0 0 0 0 0 0 0 0 0 0 0 0 0 0 0 0 0 0 0 0 0 0 0 0 0 0 0 0 0 0 0 0 0 0 0 0 0 0 0 0 0 0 0 0 0 0 0 0 0 0 0 0 0 0 0 0 0 0 0 0 0 0 0 0 0 0 0 0 0 0 0 0 0 0 0 0 0 0 0 0 0 0 0 0 0 0 0 0 0 0 0 0 0 0 0 0 0 0 0 0 0 0 0 0 0 0 0 0 0 0 0 0 0 0 0 0 0 0 0 0 0 0 0 0 0 0 0 0 0 0 0 0 0 0 0 0 0 0 0 0 0 0 0 0 0 0 0 0 0 0 0 0 0 0 0 0 0 0 0 0 0 0 0 0 0 0 0 0 0 0 0 0 0 0 0 0 0 0 0 0 0 0 0 0 0 0 0 0 0 0 0 0 0 0 0 0 0 0 0 0 0 0 0 0 
</DataArray>
<DataArray Name="Strain_11" format="ascii" type="Float64">
0 0 0 0 0 0 0 0 0 0 0 0 0 0 0 0 0 0 0 0 0 0 0 0 0 0 0 0 0 0 0 0 0 0 0 0 0 0 0 0 0 0 0 0 0 0 0 0 0 0 0 0 0 0 0 0 0 0 0 0 0 0 0 0 0 0 0 0 0 0 0 0 0 0 0 0 0 0 0 0 0 0 0 0 0 0 0 0 0 0 0 0 0 0 0 0 0 0 0 0 0 0 0 0 0 0 0 0 0 0 0 0 0 0 0 0 0 0 0 0 0 0 0 0 0 0 0 0 0 0 0 0 0 0 0 0 0 0 0 0 0 0 0 0 0 0 0 0 0 0 0 0 0 0 0 0 0 0 0 0 0 0 0 0 0 0 0 0 0 0 0 0 0 0 0 0 0 0 0 0 0 0 0 0 0 0 0 0 0 0 0 0 0 0 0 0 0 0 0 0 0 0 0 0 0 0 0 0 0 0 0 0 0 0 0 0 0 0 0 0 0 0 0 0 0 0 0 0 0 0 0 0 0 0 0 0 0 0 0 0 0 0 0 0 0 0 0 0 0 0 0 0 0 0 0 0 0 0 0 0 0 0 0 0 0 0 0 0 0 0 0 0 0 0 0 0 0 0 0 0 0 0 0 0 0 0 0 0 
</DataArray>
<DataArray Name="Strain_22" format="ascii" type="Float64">
0 0 0 0 0 0 0 0 0 0 0 0 0 0 0 0 0 0 0 0 0 0 0 0 0 0 0 0 0 0 0 0 0 0 0 0 0 0 0 0 0 0 0 0 0 0 0 0 0 0 0 0 0 0 0 0 0 0 0 0 0 0 0 0 0 0 0 0 0 0 0 0 0 0 0 0 0 0 0 0 0 0 0 0 0 0 0 0 0 0 0 0 0 0 0 0 0 0 0 0 0 0 0 0 0 0 0 0 0 0 0 0 0 0 0 0 0 0 0 0 0 0 0 0 0 0 0 0 0 0 0 0 0 0 0 0 0 0 0 0 0 0 0 0 0 0 0 0 0 0 0 0 0 0 0 0 0 0 0 0 0 0 0 0 0 0 0 0 0 0 0 0 0 0 0 0 0 0 0 0 0 0 0 0 0 0 0 0 0 0 0 0 0 0 0 0 0 0 0 0 0 0 0 0 0 0 0 0 0 0 0 0 0 0 0 0 0 0 0 0 0 0 0 0 0 0 0 0 0 0 0 0 0 0 0 0 0 0 0 0 0 0 0 0 0 0 0 0 0 0 0 0 0 0 0 0 0 0 0 0 0 0 0 0 0 0 0 0 0 0 0 0 0 0 0 0 0 0 0 0 0 0 0 0 0 0 0 0 
</DataArray>
<DataArray Name="Strain_12" format="ascii" type="Float64">
0 0 0 0 0 0 0 0 0 0 0 0 0 0 0 0 0 0 0 0 0 0 0 0 0 0 0 0 0 0 0 0 0 0 0 0 0 0 0 0 0 0 0 0 0 0 0 0 0 0 0 0 0 0 0 0 0 0 0 0 0 0 0 0 0 0 0 0 0 0 0 0 0 0 0 0 0 0 0 0 0 0 0 0 0 0 0 0 0 0 0 0 0 0 0 0 0 0 0 0 0 0 0 0 0 0 0 0 0 0 0 0 0 0 0 0 0 0 0 0 0 0 0 0 0 0 0 0 0 0 0 0 0 0 0 0 0 0 0 0 0 0 0 0 0 0 0 0 0 0 0 0 0 0 0 0 0 0 0 0 0 0 0 0 0 0 0 0 0 0 0 0 0 0 0 0 0 0 0 0 0 0 0 0 0 0 0 0 0 0 0 0 0 0 0 0 0 0 0 0 0 0 0 0 0 0 0 0 0 0 0 0 0 0 0 0 0 0 0 0 0 0 0 0 0 0 0 0 0 0 0 0 0 0 0 0 0 0 0 0 0 0 0 0 0 0 0 0 0 0 0 0 0 0 0 0 0 0 0 0 0 0 0 0 0 0 0 0 0 0 0 0 0 0 0 0 0 0 0 0 0 0 0 0 0 0 0 0 
</DataArray>
<DataArray Name="Strain_13" format="ascii" type="Float64">
1343.63 1374.29 1365.93 1349.44 1326.98 1298.77 1264.93 1225.58 1180.9 1131.09 1076.31 1016.83 1333.24 1328.38 1318.15 1302.12 1280.45 1253.22 1220.56 1182.61 1139.5 1091.43 1038.58 981.183 1323.96 1285.73 1273.64 1258.03 1237.08 1210.79 1179.24 1142.57 1100.94 1054.49 1003.43 947.984 952.884 884.758 812.724 737.129 658.291 576.516 492.216 405.72 317.446 227.746 137.052 45.7529 919.485 853.742 784.246 711.291 635.207 556.321 474.952 391.501 306.32 219.773 132.249 44.1486 888.38 824.867 757.711 687.235 613.731 537.499 458.898 378.258 295.962 212.358 127.778 42.6546 -45.7529 -137.052 -227.746 -317.446 -405.72 -492.216 -576.516 -658.291 -737.129 -812.724 -884.758 -952.884 -44.1486 -132.249 -219.773 -306.32 -391.501 -474.952 -556.321 -635.207 -711.291 -784.246 -853.742 -919.485 -42.6546 -127.778 -212.358 -295.962 -378.258 -458.898 -537.499 -613.731 -687.235 -757.711 -824.867 -888.38 -1016.83 -1076.31 -1131.09 -1180.9 -1225.58 -1264.93 -1298.77 -1326.98 -1349.44 -1365.93 -1374.29 -1343.63 -981.183 -1038.58 -1091.43 -1139.5 -1182.61 -1220.56 -1253.22 -1280.45 -1302.12 -1318.15 -1328.38 -1333.24 -947.984 -1003.43 -1054.49 -1100.94 -1142.57 -1179.24 -1210.79 -1237.08 -1258.03 -1273.64 -1285.73 -1323.96 1343.61 1374.23 1365.99 1349.37 1326.96 1298.85 1265.01 1225.56 1180.74 1131.17 1076.45 1016.87 1333.19 1328.39 1318.16 1302.04 1280.4 1253.27 1220.64 1182.59 1139.41 1091.47 1038.7 981.219 1323.87 1285.79 1273.67 1257.85 1237.01 1210.83 1179.36 1142.56 1100.79 1054.56 1003.59 947.999 952.9 884.767 812.626 737.046 658.392 576.569 492.225 405.681 317.43 227.696 136.991 45.7698 919.457 853.729 784.239 711.263 635.212 556.362 474.998 391.517 306.275 219.701 132.225 44.1599 888.274 824.84 757.818 687.219 613.652 537.532 458.991 378.343 295.881 212.227 127.795 42.7037 -45.7698 -136.991 -227.696 -317.43 -405.681 -492.225 -576.569 -658.392 -737.046 -812.626 -884.767 -952.9 -44.1599 -132.225 -219.701 -306.275 -391.517 -474.998 -556.362 -635.212 -711.263 -784.239 -853.729 -919.457 -42.7037 -127.795 -212.227 -295.881 -378.343 -458.991 -537.532 -613.652 -687.219 -757.818 -824.84 -888.274 -1016.87 -1076.45 -1131.17 -1180.74 -1225.56 -1265.01 -1298.85 -1326.96 -1349.37 -1365.99 -1374.23 -1343.61 -981.219 -1038.7 -1091.47 -1139.41 -1182.59 -1220.64 -1253.27 -1280.4 -1302.04 -1318.16 -1328.39 -1333.19 -947.999 -1003.59 -1054.56 -1100.79 -1142.56 -1179.36 -1210.83 -1237.01 -1257.85 -1273.67 -1285.79 -1323.87 
</DataArray>
<DataArray Name="Strain_23" format="ascii" type="Float64">
-1636.36 -1572.81 -1484.09 -1395.13 -1307.24 -1220.94 -1136.64 -1054.67 -975.437 -899.259 -826.461 -757.407 -1615.53 -1575.21 -1491.97 -1406.1 -1321.33 -1238.07 -1156.7 -1077.62 -1001.16 -927.639 -857.405 -790.763 -1640.15 -1582.08 -1499.28 -1416.46 -1334.52 -1254.07 -1175.47 -1099.05 -1025.17 -954.146 -886.271 -821.884 -692.381 -631.69 -575.596 -524.372 -478.221 -437.363 -401.997 -372.269 -348.327 -330.271 -318.195 -312.137 -728.021 -669.455 -615.329 -565.889 -521.354 -481.937 -447.802 -419.115 -396.009 -378.594 -366.941 -361.093 -761.265 -704.683 -652.377 -604.6 -561.581 -523.487 -490.503 -462.788 -440.46 -423.635 -412.371 -406.722 -312.137 -318.195 -330.271 -348.327 -372.269 -401.997 -437.363 -478.221 -524.372 -575.596 -631.69 -692.381 -361.093 -366.941 -378.594 -396.009 -419.115 -447.802 -481.937 -521.354 -565.889 -615.329 -669.455 -728.021 -406.722 -412.371 -423.635 -440.46 -462.788 -490.503 -523.487 -561.581 -604.6 -652.377 -704.683 -761.265 -757.407 -826.461 -899.259 -975.437 -1054.67 -1136.64 -1220.94 -1307.24 -1395.13 -1484.09 -1572.81 -1636.36 -790.763 -857.405 -927.639 -1001.16 -1077.62 -1156.7 -1238.07 -1321.33 -1406.1 -1491.97 -1575.21 -1615.53 -821.884 -886.271 -954.146 -1025.17 -1099.05 -1175.47 -1254.07 -1334.52 -1416.46 -1499.28 -1582.08 -1640.15 -1636.34 -1572.87 -1484.14 -1395.14 -1307.27 -1220.93 -1136.59 -1054.57 -975.517 -899.354 -826.451 -757.392 -1615.52 -1575.23 -1492.04 -1406.15 -1321.32 -1238.03 -1156.66 -1077.62 -1001.19 -927.647 -857.419 -790.792 -1640.1 -1582.06 -1499.42 -1416.54 -1334.44 -1253.98 -1175.44 -1099.13 -1025.19 -954.042 -886.301 -821.991 -692.345 -631.561 -575.516 -524.542 -478.245 -437.292 -401.931 -372.303 -348.412 -330.222 -318.27 -312.175 -727.987 -669.339 -615.282 -565.979 -521.375 -481.859 -447.75 -419.157 -396.088 -378.583 -366.934 -361.138 -761.249 -704.518 -652.303 -604.744 -561.581 -523.355 -490.45 -462.842 -440.624 -423.581 -412.286 -406.794 -312.175 -318.27 -330.222 -348.412 -372.303 -401.931 -437.292 -478.245 -524.542 -575.516 -631.561 -692.345 -361.138 -366.934 -378.583 -396.088 -419.157 -447.75 -481.859 -521.375 -565.979 -615.282 -669.339 -727.987 -406.794 -412.286 -423.581 -440.624 -462.842 -490.45 -523.355 -561.581 -604.744 -652.303 -704.518 -761.249 -757.392 -826.451 -899.354 -975.517 -1054.57 -1136.59 -1220.93 -1307.27 -1395.14 -1484.14 -1572.87 -1636.34 -790.792 -857.419 -927.647 -1001.19 -1077.62 -1156.66 -1238.03 -1321.32 -1406.15 -1492.04 -1575.23 -1615.52 -821.991 -886.301 -954.042 -1025.19 -1099.13 -1175.44 -1253.98 -1334.44 -1416.54 -1499.42 -1582.06 -1640.1 
</DataArray>
<DataArray Name="Strain_33" format="ascii" type="Float64">
0 0 0 0 0 0 0 0 0 0 0 0 0 0 0 0 0 0 0 0 0 0 0 0 0 0 0 0 0 0 0 0 0 0 0 0 0 0 0 0 0 0 0 0 0 0 0 0 0 0 0 0 0 0 0 0 0 0 0 0 0 0 0 0 0 0 0 0 0 0 0 0 0 0 0 0 0 0 0 0 0 0 0 0 0 0 0 0 0 0 0 0 0 0 0 0 0 0 0 0 0 0 0 0 0 0 0 0 0 0 0 0 0 0 0 0 0 0 0 0 0 0 0 0 0 0 0 0 0 0 0 0 0 0 0 0 0 0 0 0 0 0 0 0 0 0 0 0 0 0 0 0 0 0 0 0 0 0 0 0 0 0 0 0 0 0 0 0 0 0 0 0 0 0 0 0 0 0 0 0 0 0 0 0 0 0 0 0 0 0 0 0 0 0 0 0 0 0 0 0 0 0 0 0 0 0 0 0 0 0 0 0 0 0 0 0 0 0 0 0 0 0 0 0 0 0 0 0 0 0 0 0 0 0 0 0 0 0 0 0 0 0 0 0 0 0 0 0 0 0 0 0 0 0 0 0 0 0 0 0 0 0 0 0 0 0 0 0 0 0 0 0 0 0 0 0 0 0 0 0 0 0 0 0 0 0 0 0 
</DataArray>
<DataArray Name="Stress_11" format="ascii" type="Float64">
0 0 0 0 0 0 0 0 0 0 0 0 0 0 0 0 0 0 0 0 0 0 0 0 0 0 0 0 0 0 0 0 0 0 0 0 0 0 0 0 0 0 0 0 0 0 0 0 0 0 0 0 0 0 0 0 0 0 0 0 0 0 0 0 0 0 0 0 0 0 0 0 0 0 0 0 0 0 0 0 0 0 0 0 0 0 0 0 0 0 0 0 0 0 0 0 0 0 0 0 0 0 0 0 0 0 0 0 0 0 0 0 0 0 0 0 0 0 0 0 0 0 0 0 0 0 0 0 0 0 0 0 0 0 0 0 0 0 0 0 0 0 0 0 0 0 0 0 0 0 0 0 0 0 0 0 0 0 0 0 0 0 0 0 0 0 0 0 0 0 0 0 0 0 0 0 0 0 0 0 0 0 0 0 0 0 0 0 0 0 0 0 0 0 0 0 0 0 0 0 0 0 0 0 0 0 0 0 0 0 0 0 0 0 0 0 0 0 0 0 0 0 0 0 0 0 0 0 0 0 0 0 0 0 0 0 0 0 0 0 0 0 0 0 0 0 0 0 0 0 0 0 0 0 0 0 0 0 0 0 0 0 0 0 0 0 0 0 0 0 0 0 0 0 0 0 0 0 0 0 0 0 0 0 0 0 0 0 
</DataArray>
<DataArray Name="Stress_22" format="ascii" type="Float64">
0 0 0 0 0 0 0 0 0 0 0 0 0 0 0 0 0 0 0 0 0 0 0 0 0 0 0 0 0 0 0 0 0 0 0 0 0 0 0 0 0 0 0 0 0 0 0 0 0 0 0 0 0 0 0 0 0 0 0 0 0 0 0 0 0 0 0 0 0 0 0 0 0 0 0 0 0 0 0 0 0 0 0 0 0 0 0 0 0 0 0 0 0 0 0 0 0 0 0 0 0 0 0 0 0 0 0 0 0 0 0 0 0 0 0 0 0 0 0 0 0 0 0 0 0 0 0 0 0 0 0 0 0 0 0 0 0 0 0 0 0 0 0 0 0 0 0 0 0 0 0 0 0 0 0 0 0 0 0 0 0 0 0 0 0 0 0 0 0 0 0 0 0 0 0 0 0 0 0 0 0 0 0 0 0 0 0 0 0 0 0 0 0 0 0 0 0 0 0 0 0 0 0 0 0 0 0 0 0 0 0 0 0 0 0 0 0 0 0 0 0 0 0 0 0 0 0 0 0 0 0 0 0 0 0 0 0 0 0 0 0 0 0 0 0 0 0 0 0 0 0 0 0 0 0 0 0 0 0 0 0 0 0 0 0 0 0 0 0 0 0 0 0 0 0 0 0 0 0 0 0 0 0 0 0 0 0 0 
</DataArray>
<DataArray Name="Stress_12" format="ascii" type="Float64">
0 0 0 0 0 0 0 0 0 0 0 0 0 0 0 0 0 0 0 0 0 0 0 0 0 0 0 0 0 0 0 0 0 0 0 0 0 0 0 0 0 0 0 0 0 0 0 0 0 0 0 0 0 0 0 0 0 0 0 0 0 0 0 0 0 0 0 0 0 0 0 0 0 0 0 0 0 0 0 0 0 0 0 0 0 0 0 0 0 0 0 0 0 0 0 0 0 0 0 0 0 0 0 0 0 0 0 0 0 0 0 0 0 0 0 0 0 0 0 0 0 0 0 0 0 0 0 0 0 0 0 0 0 0 0 0 0 0 0 0 0 0 0 0 0 0 0 0 0 0 0 0 0 0 0 0 0 0 0 0 0 0 0 0 0 0 0 0 0 0 0 0 0 0 0 0 0 0 0 0 0 0 0 0 0 0 0 0 0 0 0 0 0 0 0 0 0 0 0 0 0 0 0 0 0 0 0 0 0 0 0 0 0 0 0 0 0 0 0 0 0 0 0 0 0 0 0 0 0 0 0 0 0 0 0 0 0 0 0 0 0 0 0 0 0 0 0 0 0 0 0 0 0 0 0 0 0 0 0 0 0 0 0 0 0 0 0 0 0 0 0 0 0 0 0 0 0 0 0 0 0 0 0 0 0 0 0 0 
</DataArray>
<DataArray Name="Stress_13" format="ascii" type="Float64">
55985 57262.4 56914.1 56227.3 55291.4 54115.7 52705.7 51066.3 49204.7 47129 44846.7 42368.3 55552 55349.6 54923.4 54255.5 53352.4 52218 50857.2 49275.8 47479.6 45476.4 43274.4 40883 55165.6 53572.4 53068.7 52418.2 51545.2 50449.8 49135.3 47607.4 45872.8 43937.3 41809.7 39499.6 39703.8 36865.2 33863.8 30713.9 27429 24021.7 20509.2 16905.1 13227 9489.48 5710.55 1906.38 38312.2 35572.9 32677.2 29637.4 26467.2 23180.2 19789.8 16312.7 12763.4 9157.27 5510.43 1839.54 37016.1 34369.8 31571.5 28635 25572.3 22396 19120.9 15760.9 12331.8 8848.34 5324.14 1777.29 -1906.38 -5710.55 -9489.48 -13227 -16905.1 -20509.2 -24021.7 -27429 -30713.9 -33863.8 -36865.2 -39703.8 -1839.54 -5510.43 -9157.27 -12763.4 -16312.7 -19789.8 -23180.2 -26467.2 -29637.4 -32677.2 -35572.9 -38312.2 -1777.29 -5324.14 -8848.34 -12331.8 -15760.9 -19120.9 -22396 -25572.3 -28635 -31571.5 -34369.8 -37016.1 -42368.3 -44846.7 -47129 -49204.7 -51066.3 -52705.7 -54115.7 -55291.4 -56227.3 -56914.1 -57262.4 -55985 -40883 -43274.4 -45476.4 -47479.6 -49275.8 -50857.2 -52218 -53352.4 -54255.5 -54923.4 -55349.6 -55552 -39499.6 -41809.7 -43937.3 -45872.8 -47607.4 -49135.3 -50449.8 -51545.2 -52418.2 -53068.7 -53572.4 -55165.6 55.9842 57.2601 56.9168 56.2243 55.2905 54.119 52.7091 51.0656 49.1979 47.1325 44.8522 42.3699 55.5501 55.3499 54.9238 54.2522 53.3506 52.2202 50.8605 49.275 47.4759 45.4784 43.2793 40.8844 55.1618 53.5752 53.0702 52.4108 51.5424 50.4515 49.1404 47.6071 45.8665 43.9403 41.8165 39.5003 39.7045 36.8656 33.8597 30.7105 27.4332 24.0239 20.5095 16.9035 13.2263 9.48742 5.708 1.90709 38.311 35.5723 32.6769 29.6362 26.4674 23.1819 19.7918 16.3133 12.7616 9.15427 5.50943 1.84001 37.0117 34.3686 31.576 28.6344 25.5691 22.3974 19.1248 15.7644 12.3285 8.84287 5.32485 1.77933 -1.90709 -5.708 -9.48742 -13.2263 -16.9035 -20.5095 -24.0239 -27.4332 -30.7105 -33.8597 -36.8656 -39.7045 -1.84001 -5.50943 -9.15427 -12.7616 -16.3133 -19.7918 -23.1819 -26.4674 -29.6362 -32.6769 -35.5723 -38.311 -1.77933 -5.32485 -8.84287 -12.3285 -15.7644 -19.1248 -22.3974 -25.5691 -28.6344 -31.576 -34.3686 -37.0117 -42.3699 -44.8522 -47.1325 -49.1979 -51.0656 -52.7091 -54.119 -55.2905 -56.2243 -56.9168 -57.2601 -55.9842 -40.8844 -43.2793 -45.4784 -47.4759 -49.275 -50.8605 -52.2202 -53.3506 -54.2522 -54.9238 -55.3499 -55.5501 -39.5003 -41.8165 -43.9403 -45.8665 -47.6071 -49.1404 -50.4515 -51.5424 -52.4108 -53.0702 -53.5752 -55.1618 
</DataArray>
<DataArray Name="Stress_23" format="ascii" type="Float64">
-68182 -65534.2 -61837.8 -58130.7 -54468.7 -50873.1 -47360.5 -43944.9 -40643.5 -37469.4 -34436.2 -31558.9 -67314.2 -65634.3 -62166 -58588 -55056 -51586.7 -48196.4 -44901.4 -41715.3 -38651.9 -35725.5 -32948.7 -68340.1 -65920.4 -62470.6 -59019.4 -55605.3 -52253.3 -48978.2 -45794 -42715.8 -39756.4 -36928.3 -34245.4 -28849.5 -26320.6 -23983.4 -21849 -19926 -18223.6 -16750 -15511.4 -14513.8 -13761.4 -13258.2 -13005.8 -30334.5 -27894.2 -25638.9 -23578.9 -21723.2 -20080.9 -18658.6 -17463.3 -16500.5 -15774.9 -15289.3 -15045.6 -31719.6 -29362 -27182.6 -25191.9 -23399.4 -21812.1 -20437.8 -19283 -18352.7 -17651.6 -17182.3 -16946.9 -13005.8 -13258.2 -13761.4 -14513.8 -15511.4 -16750 -18223.6 -19926 -21849 -23983.4 -26320.6 -28849.5 -15045.6 -15289.3 -15774.9 -16500.5 -17463.3 -18658.6 -20080.9 -21723.2 -23578.9 -25638.9 -27894.2 -30334.5 -16946.9 -17182.3 -17651.6 -18352.7 -19283 -20437.8 -21812.1 -23399.4 -25191.9 -27182.6 -29362 -31719.6 -31558.9 -34436.2 -37469.4 -40643.5 -43944.9 -47360.5 -50873.1 -54468.7 -58130.7 -61837.8 -65534.2 -68182 -32948.7 -35725.5 -38651.9 -41715.3 -44901.4 -48196.4 -51586.7 -55056 -58588 -62166 -65634.3 -67314.2 -34245.4 -36928.3 -39756.4 -42715.8 -45794 -48978.2 -52253.3 -55605.3 -59019.4 -62470.6 -65920.4 -68340.1 -68.1813 -65.5367 -61.8397 -58.1313 -54.4702 -50.8725 -47.3582 -43.9406 -40.6469 -37.4734 -34.4357 -31.5582 -67.3138 -65.6353 -62.169 -58.5899 -55.0554 -51.5849 -48.1947 -44.9012 -41.7165 -38.6523 -35.7261 -32.9499 -68.3381 -65.9198 -62.4762 -59.023 -55.602 -52.2496 -48.977 -45.7975 -42.7167 -39.7521 -36.9295 -34.2499 -28.8479 -26.3153 -23.98 -21.8561 -19.9271 -18.2206 -16.7472 -15.5127 -14.5173 -13.7594 -13.2614 -13.0074 -30.333 -27.8893 -25.6369 -23.5826 -21.7241 -20.0776 -18.6564 -17.465 -16.5038 -15.7744 -15.289 -15.0476 -31.719 -29.3551 -27.1795 -25.1979 -23.3994 -21.8066 -20.4356 -19.2852 -18.3595 -17.6493 -17.1787 -16.9499 -13.0074 -13.2614 -13.7594 -14.5173 -15.5127 -16.7472 -18.2206 -19.9271 -21.8561 -23.98 -26.3153 -28.8479 -15.0476 -15.289 -15.7744 -16.5038 -17.465 -18.6564 -20.0776 -21.7241 -23.5826 -25.6369 -27.8893 -30.333 -16.9499 -17.1787 -17.6493 -18.3595 -19.2852 -20.4356 -21.8066 -23.3994 -25.1979 -27.1795 -29.3551 -31.719 -31.5582 -34.4357 -37.4734 -40.6469 -43.9406 -47.3582 -50.8725 -54.4702 -58.1313 -61.8397 -65.5367 -68.1813 -32.9499 -35.7261 -38.6523 -41.7165 -44.9012 -48.1947 -51.5849 -55.0554 -58.5899 -62.169 -65.6353 -67.3138 -34.2499 -36.9295 -39.7521 -42.7167 -45.7975 -48.977 -52.2496 -55.602 -59.023 -62.4762 -65.9198 -68.3381 
</DataArray>
<DataArray Name="Stress_33" format="ascii" type="Float64">
0 0 0 0 0 0 0 0 0 0 0 0 0 0 0 0 0 0 0 0 0 0 0 0 0 0 0 0 0 0 0 0 0 0 0 0 0 0 0 0 0 0 0 0 0 0 0 0 0 0 0 0 0 0 0 0 0 0 0 0 0 0 0 0 0 0 0 0 0 0 0 0 0 0 0 0 0 0 0 0 0 0 0 0 0 0 0 0 0 0 0 0 0 0 0 0 0 0 0 0 0 0 0 0 0 0 0 0 0 0 0 0 0 0 0 0 0 0 0 0 0 0 0 0 0 0 0 0 0 0 0 0 0 0 0 0 0 0 0 0 0 0 0 0 0 0 0 0 0 0 0 0 0 0 0 0 0 0 0 0 0 0 0 0 0 0 0 0 0 0 0 0 0 0 0 0 0 0 0 0 0 0 0 0 0 0 0 0 0 0 0 0 0 0 0 0 0 0 0 0 0 0 0 0 0 0 0 0 0 0 0 0 0 0 0 0 0 0 0 0 0 0 0 0 0 0 0 0 0 0 0 0 0 0 0 0 0 0 0 0 0 0 0 0 0 0 0 0 0 0 0 0 0 0 0 0 0 0 0 0 0 0 0 0 0 0 0 0 0 0 0 0 0 0 0 0 0 0 0 0 0 0 0 0 0 0 0 0 
</DataArray>
</CellData>
<Points>
<DataArray NumberOfComponents="3" format="ascii" type="Float64">
0 0.09 0 -0.06364 0.06364 0 -0.005886 0.089807 0 -0.011747 0.08923 0 -0.017558 0.088271 0 -0.023294 0.086933 0 -0.02893 0.085224 0 -0.034442 0.083149 0 -0.039806 0.080719 0 -0.045 0.077942 0 -0.050001 0.074832 0 -0.054789 0.071402 0 -0.059341 0.067666 0 -0.065997 0.065997 0 0 0.093333 0 -0.006104 0.093133 0 -0.012182 0.092535 0 -0.018208 0.09154 0 -0.024156 0.090153 0 -0.030001 0.08838 0 -0.035717 0.086229 0 -0.04128 0.083708 0 -0.046667 0.080829 0 -0.051853 0.077604 0 -0.056818 0.074046 0 -0.061539 0.070172 0 -0.068354 0.068354 0 0 0.096667 0 -0.006322 0.09646 0 -0.012618 0.09584 0 -0.018859 0.094809 0 -0.025019 0.093373 0 -0.031072 0.091537 0 -0.036993 0.089308 0 -0.042755 0.086698 0 -0.048333 0.083716 0 -0.053705 0.080375 0 -0.058847 0.076691 0 -0.063737 0.072678 0 -0.070711 0.070711 0 0 0.1 0 -0.00654 0.099786 0 -0.013053 0.099144 0 -0.019509 0.098079 0 -0.025882 0.096593 0 -0.032144 0.094693 0 -0.038268 0.092388 0 -0.044229 0.089687 0 -0.05 0.086603 0 -0.055557 0.083147 0 -0.060876 0.079335 0 -0.065935 0.075184 0 -0.09 0 0 -0.067666 0.059341 0 -0.071402 0.054789 0 -0.074832 0.050001 0 -0.077942 0.045 0 -0.080719 0.039806 0 -0.083149 0.034442 0 -0.085224 0.02893 0 -0.086933 0.023294 0 -0.088271 0.017558 0 -0.08923 0.011747 0 -0.089807 0.005886 0 -0.093333 0 0 -0.070172 0.061539 0 -0.074046 0.056818 0 -0.077604 0.051853 0 -0.080829 0.046667 0 -0.083708 0.04128 0 -0.086229 0.035717 0 -0.08838 0.030001 0 -0.090153 0.024156 0 -0.09154 0.018208 0 -0.092535 0.012182 0 -0.093133 0.006104 0 -0.096667 0 0 -0.072678 0.063737 0 -0.076691 0.058847 0 -0.080375 0.053705 0 -0.083716 0.048333 0 -0.086698 0.042755 0 -0.089308 0.036993 0 -0.091537 0.031072 0 -0.093373 0.025019 0 -0.094809 0.018859 0 -0.09584 0.012618 0 -0.09646 0.006322 0 -0.1 0 0 -0.075184 0.065935 0 -0.079335 0.060876 0 -0.083147 0.055557 0 -0.086603 0.05 0 -0.089687 0.044229 0 -0.092388 0.038268 0 -0.094693 0.032144 0 -0.096593 0.025882 0 -0.098079 0.019509 0 -0.099144 0.013053 0 -0.099786 0.00654 0 -0.06364 -0.06364 0 -0.089807 -0.005886 0 -0.08923 -0.011747 0 -0.088271 -0.017558 0 -0.086933 -0.023294 0 -0.085224 -0.02893 0 -0.083149 -0.034442 0 -0.080719 -0.039806 0 -0.077942 -0.045 0 -0.074832 -0.050001 0 -0.071402 -0.054789 0 -0.067666 -0.059341 0 -0.065997 -0.065997 0 -0.093133 -0.006104 0 -0.092535 -0.012182 0 -0.09154 -0.018208 0 -0.090153 -0.024156 0 -0.08838 -0.030001 0 -0.086229 -0.035717 0 -0.083708 -0.04128 0 -0.080829 -0.046667 0 -0.077604 -0.051853 0 -0.074046 -0.056818 0 -0.070172 -0.061539 0 -0.068354 -0.068354 0 -0.09646 -0.006322 0 -0.09584 -0.012618 0 -0.094809 -0.018859 0 -0.093373 -0.025019 0 -0.091537 -0.031072 0 -0.089308 -0.036993 0 -0.086698 -0.042755 0 -0.083716 -0.048333 0 -0.080375 -0.053705 0 -0.076691 -0.058847 0 -0.072678 -0.063737 0 -0.070711 -0.070711 0 -0.099786 -0.00654 0 -0.099144 -0.013053 0 -0.098079 -0.019509 0 -0.096593 -0.025882 0 -0.094693 -0.032144 0 -0.092388 -0.038268 0 -0.089687 -0.044229 0 -0.086603 -0.05 0 -0.083147 -0.055557 0 -0.079335 -0.060876 0 -0.075184 -0.065935 0 0 -0.09 0 -0.059341 -0.067666 0 -0.054789 -0.071402 0 -0.050001 -0.074832 0 -0.045 -0.077942 0 -0.039806 -0.080719 0 -0.034442 -0.083149 0 -0.02893 -0.085224 0 -0.023294 -0.086933 0 -0.017558 -0.088271 0 -0.011747 -0.08923 0 -0.005886 -0.089807 0 0 -0.093333 0 -0.061539 -0.070172 0 -0.056818 -0.074046 0 -0.051853 -0.077604 0 -0.046667 -0.080829 0 -0.04128 -0.083708 0 -0.035717 -0.086229 0 -0.030001 -0.08838 0 -0.024156 -0.090153 0 -0.018208 -0.09154 0 -0.012182 -0.092535 0 -0.006104 -0.093133 0 0 -0.096667 0 -0.063737 -0.072678 0 -0.058847 -0.076691 0 -0.053705 -0.080375 0 -0.048333 -0.083716 0 -0.042755 -0.086698 0 -0.036993 -0.089308 0 -0.031072 -0.091537 0 -0.025019 -0.093373 0 -0.018859 -0.094809 0 -0.012618 -0.09584 0 -0.006322 -0.09646 0 0 -0.1 0 -0.065935 -0.075184 0 -0.060876 -0.079335 0 -0.055557 -0.083147 0 -0.05 -0.086603 0 -0.044229 -0.089687 0 -0.038268 -0.092388 0 -0.032144 -0.094693 0 -0.025882 -0.096593 0 -0.019509 -0.098079 0 -0.013053 -0.099144 0 -0.00654 -0.099786 0 0.06364 -0.06364 0 0.005886 -0.089807 0 0.011747 -0.08923 0 0.017558 -0.088271 0 0.023294 -0.086933 0 0.02893 -0.085224 0 0.034442 -0.083149 0 0.039806 -0.080719 0 0.045 -0.077942 0 0.050001 -0.074832 0 0.054789 -0.071402 0 0.059341 -0.067666 0 0.065997 -0.065997 0 0.006104 -0.093133 0 0.012182 -0.092535 0 0.018208 -0.09154 0 0.024156 -0.090153 0 0.030001 -0.08838 0 0.035717 -0.086229 0 0.04128 -0.083708 0 0.046667 -0.080829 0 0.051853 -0.077604 0 0.056818 -0.074046 0 0.061539 -0.070172 0 0.068354 -0.068354 0 0.006322 -0.09646 0 0.012618 -0.09584 0 0.018859 -0.094809 0 0.025019 -0.093373 0 0.031072 -0.091537 0 0.036993 -0.089308 0 0.042755 -0.086698 0 0.048333 -0.083716 0 0.053705 -0.080375 0 0.058847 -0.076691 0 0.063737 -0.072678 0 0.070711 -0.070711 0 0.00654 -0.099786 0 0.013053 -0.099144 0 0.019509 -0.098079 0 0.025882 -0.096593 0 0.032144 -0.094693 0 0.038268 -0.092388 0 0.044229 -0.089687 0 0.05 -0.086603 0 0.055557 -0.083147 0 0.060876 -0.079335 0 0.065935 -0.075184 0 0.09 0 0 0.067666 -0.059341 0 0.071402 -0.054789 0 0.074832 -0.050001 0 0.077942 -0.045 0 0.080719 -0.039806 0 0.083149 -0.034442 0 0.085224 -0.02893 0 0.086933 -0.023294 0 0.088271 -0.017558 0 0.08923 -0.011747 0 0.089807 -0.005886 0 0.093333 0 0 0.070172 -0.061539 0 0.074046 -0.056818 0 0.077604 -0.051853 0 0.080829 -0.046667 0 0.083708 -0.04128 0 0.086229 -0.035717 0 0.08838 -0.030001 0 0.090153 -0.024156 0 0.09154 -0.018208 0 0.092535 -0.012182 0 0.093133 -0.006104 0 0.096667 0 0 0.072678 -0.063737 0 0.076691 -0.058847 0 0.080375 -0.053705 0 0.083716 -0.048333 0 0.086698 -0.042755 0 0.089308 -0.036993 0 0.091537 -0.031072 0 0.093373 -0.025019 0 0.094809 -0.018859 0 0.09584 -0.012618 0 0.09646 -0.006322 0 0.1 0 0 0.075184 -0.065935 0 0.079335 -0.060876 0 0.083147 -0.055557 0 0.086603 -0.05 0 0.089687 -0.044229 0 0.092388 -0.038268 0 0.094693 -0.032144 0 0.096593 -0.025882 0 0.098079 -0.019509 0 0.099144 -0.013053 0 0.099786 -0.00654 0 0.06364 0.06364 0 0.089807 0.005886 0 0.08923 0.011747 0 0.088271 0.017558 0 0.086933 0.023294 0 0.085224 0.02893 0 0.083149 0.034442 0 0.080719 0.039806 0 0.077942 0.045 0 0.074832 0.050001 0 0.071402 0.054789 0 0.067666 0.059341 0 0.065997 0.065997 0 0.093133 0.006104 0 0.092535 0.012182 0 0.09154 0.018208 0 0.090153 0.024156 0 0.08838 0.030001 0 0.086229 0.035717 0 0.083708 0.04128 0 0.080829 0.046667 0 0.077604 0.051853 0 0.074046 0.056818 0 0.070172 0.061539 0 0.068354 0.068354 0 0.09646 0.006322 0 0.09584 0.012618 0 0.094809 0.018859 0 0.093373 0.025019 0 0.091537 0.031072 0 0.089308 0.036993 0 0.086698 0.042755 0 0.083716 0.048333 0 0.080375 0.053705 0 0.076691 0.058847 0 0.072678 0.063737 0 0.070711 0.070711 0 0.099786 0.00654 0 0.099144 0.013053 0 0.098079 0.019509 0 0.096593 0.025882 0 0.094693 0.032144 0 0.092388 0.038268 0 0.089687 0.044229 0 0.086603 0.05 0 0.083147 0.055557 0 0.079335 0.060876 0 0.075184 0.065935 0 0.059341 0.067666 0 0.054789 0.071402 0 0.050001 0.074832 0 0.045 0.077942 0 0.039806 0.080719 0 0.034442 0.083149 0 0.02893 0.085224 0 0.023294 0.086933 0 0.017558 0.088271 0 0.011747 0.08923 0 0.005886 0.089807 0 0.061539 0.070172 0 0.056818 0.074046 0 0.051853 0.077604 0 0.046667 0.080829 0 0.04128 0.083708 0 0.035717 0.086229 0 0.030001 0.08838 0 0.024156 0.090153 0 0.018208 0.09154 0 0.012182 0.092535 0 0.006104 0.093133 0 0.063737 0.072678 0 0.058847 0.076691 0 0.053705 0.080375 0 0.048333 0.083716 0 0.042755 0.086698 0 0.036993 0.089308 0 0.031072 0.091537 0 0.025019 0.093373 0 0.018859 0.094809 0 0.012618 0.09584 0 0.006322 0.09646 0 0.065935 0.075184 0 0.060876 0.079335 0 0.055557 0.083147 0 0.05 0.086603 0 0.044229 0.089687 0 0.038268 0.092388 0 0.032144 0.094693 0 0.025882 0.096593 0 0.019509 0.098079 0 0.013053 0.099144 0 0.00654 0.099786 0 
</DataArray>
</Points>
<Cells>
<DataArray Name="connectivity" format="ascii" type="Int64">