<?xml version="1.0"?>
<VTKFile byte_order="LittleEndian" type="UnstructuredGrid" version="0.1">
<UnstructuredGrid>
<Piece NumberOfCells="232" NumberOfPoints="918">
<PointData>
</PointData>
<CellData>
<DataArray Name="MaterialId" format="ascii" type="Float64">
3 3 3 3 3 3 3 3 3 3 3 3 3 3 3 3 3 3 3 3 3 3 3 3 3 3 3 3 3 3 3 3 1 1 1 1 1 1 1 1 1 1 1 1 1 1 1 1 1 1 1 1 1 1 1 1 1 1 1 1 1 1 1 1 1 1 1 1 1 1 1 1 1 1 1 1 1 1 1 1 1 1 1 1 1 1 1 1 1 1 1 1 1 1 1 1 1 1 1 1 1 1 1 1 1 1 1 1 1 1 1 1 3 3 3 3 3 3 3 3 3 3 3 3 3 3 3 3 3 3 3 3 3 3 3 3 3 3 3 3 3 3 3 3 3 3 3 3 3 3 3 3 3 3 3 3 3 3 3 3 3 3 3 3 3 3 3 3 3 3 3 3 3 3 3 3 3 3 3 3 3 3 3 3 3 3 3 3 3 3 3 3 3 3 3 3 3 3 3 3 3 3 3 3 3 3 3 3 3 3 3 3 3 3 3 3 3 3 3 3 3 3 3 3 3 3 3 3 3 3 3 3 
</DataArray>
<DataArray Name="FiberAngle" format="ascii" type="Float64">
-45 -45 -45 -45 -45 -45 -45 -45 -45 -45 -45 -45 -45 -45 -45 -45 -45 -45 -45 -45 -45 -45 -45 -45 -45 -45 -45 -45 -45 -45 -45 -45 0 0 0 0 0 0 0 0 0 0 0 0 0 0 0 0 0 0 0 0 0 0 0 0 0 0 0 0 0 0 0 0 0 0 0 0 0 0 0 0 0 0 0 0 0 0 0 0 0 0 0 0 0 0 0 0 0 0 0 0 0 0 0 0 0 0 0 0 0 0 0 0 0 0 0 0 0 0 0 0 -45 -45 -45 -45 -45 -45 -45 -45 -45 -45 -45 -45 -45 -45 -45 -45 -45 -45 -45 -45 -45 -45 -45 -45 -45 -45 -45 -45 -45 -45 -45 -45 -45 -45 -45 -45 -45 -45 -45 -45 -45 -45 -45 -45 -45 -45 -45 -45 -45 -45 -45 -45 -45 -45 -45 -45 -45 -45 -45 -45 -45 -45 -45 -45 -45 -45 -45 -45 -45 -45 -45 -45 -45 -45 -45 -45 -45 -45 -45 -45 -45 -45 -45 -45 -45 -45 -45 -45 -45 -45 -45 -45 -45 -45 -45 -45 -45 -45 -45 -45 -45 -45 -45 -45 -45 -45 -45 -45 -45 -45 -45 -45 -45 -45 -45 -45 -45 -45 -45 -45 
</DataArray>
</CellData>
<Points>
<DataArray NumberOfComponents="3" format="ascii" type="Float64">
-0.5 -0.125 0 -0.49 -0.125 0 -0.495 -0.125 0 -0.49 -0.115 0 -0.49 -0.12 0 -0.5 -0.115 0 -0.495 -0.115 0 -0.5 -0.12 0 -0.495 -0.12 0 -0.5 0.115 0 -0.49 0.115 0 -0.495 0.115 0 -0.49 0.125 0 -0.49 0.12 0 -0.5 0.125 0 -0.495 0.125 0 -0.5 0.12 0 -0.495 0.12 0 -0.255 -0.125 0 -0.245 -0.125 0 -0.25 -0.125 0 -0.245 -0.115 0 -0.245 -0.12 0 -0.255 -0.115 0 -0.25 -0.115 0 -0.255 -0.12 0 -0.25 -0.12 0 -0.255 0.115 0 -0.245 0.115 0 -0.25 0.115 0 -0.245 0.125 0 -0.245 0.12 0 -0.255 0.125 0 -0.25 0.125 0 -0.255 0.12 0 -0.25 0.12 0 -0.005 -0.125 0 0.005 -0.125 0 0 -0.125 0 0.005 -0.115 0 0.005 -0.12 0 -0.005 -0.115 0 0 -0.115 0 -0.005 -0.12 0 0 -0.12 0 -0.005 0.115 0 0.005 0.115 0 0 0.115 0 0.005 0.125 0 0.005 0.12 0 -0.005 0.125 0 0 0.125 0 -0.005 0.12 0 0 0.12 0 0.49 -0.125 0 0.5 -0.125 0 0.495 -0.125 0 0.5 -0.115 0 0.5 -0.12 0 0.49 -0.115 0 0.495 -0.115 0 0.49 -0.12 0 0.495 -0.12 0 0.49 0.115 0 0.5 0.115 0 0.495 0.115 0 0.5 0.125 0 0.5 0.12 0 0.49 0.125 0 0.495 0.125 0 0.49 0.12 0 0.495 0.12 0 -0.5 -0.092 0 -0.5 -0.069 0 -0.5 -0.046 0 -0.5 -0.023 0 -0.5 0 0 -0.5 0.023 0 -0.5 0.046 0 -0.5 0.069 0 -0.5 0.092 0 -0.49 -0.092 0 -0.49 -0.069 0 -0.49 -0.046 0 -0.49 -0.023 0 -0.49 0 0 -0.49 0.023 0 -0.49 0.046 0 -0.49 0.069 0 -0.49 0.092 0 -0.495 -0.092 0 -0.495 -0.069 0 -0.495 -0.046 0 -0.495 -0.023 0 -0.495 0 0 -0.495 0.023 0 -0.495 0.046 0 -0.495 0.069 0 -0.495 0.092 0 -0.255 -0.092 0 -0.255 -0.069 0 -0.255 -0.046 0 -0.255 -0.023 0 -0.255 0 0 -0.255 0.023 0 -0.255 0.046 0 -0.255 0.069 0 -0.255 0.092 0 -0.245 -0.092 0 -0.245 -0.069 0 -0.245 -0.046 0 -0.245 -0.023 0 -0.245 0 0 -0.245 0.023 0 -0.245 0.046 0 -0.245 0.069 0 -0.245 0.092 0 -0.25 -0.092 0 -0.25 -0.069 0 -0.25 -0.046 0 -0.25 -0.023 0 -0.25 0 0 -0.25 0.023 0 -0.25 0.046 0 -0.25 0.069 0 -0.25 0.092 0 -0.005 -0.092 0 -0.005 -0.069 0 -0.005 -0.046 0 -0.005 -0.023 0 -0.005 0 0 -0.005 0.023 0 -0.005 0.046 0 -0.005 0.069 0 -0.005 0.092 0 0.005 -0.092 0 0.005 -0.069 0 0.005 -0.046 0 0.005 -0.023 0 0.005 0 0 0.005 0.023 0 0.005 0.046 0 0.005 0.069 0 0.005 0.092 0 0 -0.092 0 0 -0.069 0 0 -0.046 0 0 -0.023 0 0 0 0 0 0.023 0 0 0.046 0 0 0.069 0 0 0.092 0 0.49 -0.092 0 0.49 -0.069 0 0.49 -0.046 0 0.49 -0.023 0 0.49 0 0 0.49 0.023 0 0.49 0.046 0 0.49 0.069 0 0.49 0.092 0 0.5 -0.092 0 0.5 -0.069 0 0.5 -0.046 0 0.5 -0.023 0 0.5 0 0 0.5 0.023 0 0.5 0.046 0 0.5 0.069 0 0.5 0.092 0 0.495 -0.092 0 0.495 -0.069 0 0.495 -0.046 0 0.495 -0.023 0 0.495 0 0 0.495 0.023 0 0.495 0.046 0 0.495 0.069 0 0.495 0.092 0 -0.4665 0.125 0 -0.443 0.125 0 -0.4195 0.125 0 -0.396 0.125 0 -0.3725 0.125 0 -0.349 0.125 0 -0.3255 0.125 0 -0.302 0.125 0 -0.2785 0.125 0 -0.4665 0.115 0 -0.443 0.115 0 -0.4195 0.115 0 -0.396 0.115 0 -0.3725 0.115 0 -0.349 0.115 0 -0.3255 0.115 0 -0.302 0.115 0 -0.2785 0.115 0 -0.4665 0.12 0 -0.443 0.12 0 -0.4195 0.12 0 -0.396 0.12 0 -0.3725 0.12 0 -0.349 0.12 0 -0.3255 0.12 0 -0.302 0.12 0 -0.2785 0.12 0 -0.4665 -0.115 0 -0.443 -0.115 0 -0.4195 -0.115 0 -0.396 -0.115 0 -0.3725 -0.115 0 -0.349 -0.115 0 -0.3255 -0.115 0 -0.302 -0.115 0 -0.2785 -0.115 0 -0.4665 -0.125 0 -0.443 -0.125 0 -0.4195 -0.125 0 -0.396 -0.125 0 -0.3725 -0.125 0 -0.349 -0.125 0 -0.3255 -0.125 0 -0.302 -0.125 0 -0.2785 -0.125 0 -0.4665 -0.12 0 -0.443 -0.12 0 -0.4195 -0.12 0 -0.396 -0.12 0 -0.3725 -0.12 0 -0.349 -0.12 0 -0.3255 -0.12 0 -0.302 -0.12 0 -0.2785 -0.12 0 -0.221 0.125 0 -0.197 0.125 0 -0.173 0.125 0 -0.149 0.125 0 -0.125 0.125 0 -0.101 0.125 0 -0.077 0.125 0 -0.053 0.125 0 -0.029 0.125 0 -0.221 0.115 0 -0.197 0.115 0 -0.173 0.115 0 -0.149 0.115 0 -0.125 0.115 0 -0.101 0.115 0 -0.077 0.115 0 -0.053 0.115 0 -0.029 0.115 0 -0.221 0.12 0 -0.197 0.12 0 -0.173 0.12 0 -0.149 0.12 0 -0.125 0.12 0 -0.101 0.12 0 -0.077 0.12 0 -0.053 0.12 0 -0.029 0.12 0 -0.221 -0.115 0 -0.197 -0.115 0 -0.173 -0.115 0 -0.149 -0.115 0 -0.125 -0.115 0 -0.101 -0.115 0 -0.077 -0.115 0 -0.053 -0.115 0 -0.029 -0.115 0 -0.221 -0.125 0 -0.197 -0.125 0 -0.173 -0.125 0 -0.149 -0.125 0 -0.125 -0.125 0 -0.101 -0.125 0 -0.077 -0.125 0 -0.053 -0.125 0 -0.029 -0.125 0 -0.221 -0.12 0 -0.197 -0.12 0 -0.173 -0.12 0 -0.149 -0.12 0 -0.125 -0.12 0 -0.101 -0.12 0 -0.077 -0.12 0 -0.053 -0.12 0 -0.029 -0.12 0 0.0535 0.125 0 0.102 0.125 0 0.1505 0.125 0 0.199 0.125 0 0.2475 0.125 0 0.296 0.125 0 0.3445 0.125 0 0.393 0.125 0 0.4415 0.125 0 0.0535 0.115 0 0.102 0.115 0 0.1505 0.115 0 0.199 0.115 0 0.2475 0.115 0 0.296 0.115 0 0.3445 0.115 0 0.393 0.115 0 0.4415 0.115 0 0.0535 0.12 0 0.102 0.12 0 0.1505 0.12 0 0.199 0.12 0 0.2475 0.12 0 0.296 0.12 0 0.3445 0.12 0 0.393 0.12 0 0.4415 0.12 0 0.0535 -0.115 0 0.102 -0.115 0 0.1505 -0.115 0 0.199 -0.115 0 0.2475 -0.115 0 0.296 -0.115 0 0.3445 -0.115 0 0.393 -0.115 0 0.4415 -0.115 0 0.0535 -0.125 0 0.102 -0.125 0 0.1505 -0.125 0 0.199 -0.125 0 0.2475 -0.125 0 0.296 -0.125 0 0.3445 -0.125 0 0.393 -0.125 0 0.4415 -0.125 0 0.0535 -0.12 0 0.102 -0.12 0 0.1505 -0.12 0 0.199 -0.12 0 0.2475 -0.12 0 0.296 -0.12 0 0.3445 -0.12 0 0.393 -0.12 0 0.4415 -0.12 0 -0.4975 -0.125 0 -0.5 -0.1225 0 -0.4925 -0.125 0 -0.49 -0.1225 0 -0.47825 -0.125 0 -0.495 -0.1225 0 -0.49 -0.1175 0 -0.4925 -0.115 0 -0.49 -0.1035 0 -0.47825 -0.115 0 -0.4925 -0.12 0 -0.47825 -0.12 0 -0.4975 -0.115 0 -0.5 -0.1175 0 -0.5 -0.1035 0 -0.495 -0.1175 0 -0.495 -0.1035 0 -0.4975 -0.12 0 -0.4975 0.115 0 -0.5 0.1175 0 -0.5 0.1035 0 -0.4925 0.115 0 -0.49 0.1175 0 -0.49 0.1035 0 -0.47825 0.115 0 -0.495 0.1175 0 -0.495 0.1035 0 -0.49 0.1225 0 -0.4925 0.125 0 -0.47825 0.125 0 -0.4925 0.12 0 -0.47825 0.12 0 -0.4975 0.125 0 -0.5 0.1225 0 -0.495 0.1225 0 -0.4975 0.12 0 -0.2525 -0.125 0 -0.255 -0.1225 0 -0.26675 -0.125 0 -0.2475 -0.125 0 -0.245 -0.1225 0 -0.233 -0.125 0 -0.25 -0.1225 0 -0.245 -0.1175 0 -0.2475 -0.115 0 -0.245 -0.1035 0 -0.233 -0.115 0 -0.2475 -0.12 0 -0.233 -0.12 0 -0.2525 -0.115 0 -0.255 -0.1175 0 -0.255 -0.1035 0 -0.26675 -0.115 0 -0.25 -0.1175 0 -0.25 -0.1035 0 -0.2525 -0.12 0 -0.26675 -0.12 0 -0.2525 0.115 0 -0.255 0.1175 0 -0.255 0.1035 0 -0.26675 0.115 0 -0.2475 0.115 0 -0.245 0.1175 0 -0.245 0.1035 0 -0.233 0.115 0 -0.25 0.1175 0 -0.25 0.1035 0 -0.245 0.1225 0 -0.2475 0.125 0 -0.233 0.125 0 -0.2475 0.12 0 -0.233 0.12 0 -0.2525 0.125 0 -0.255 0.1225 0 -0.26675 0.125 0 -0.25 0.1225 0 -0.2525 0.12 0 -0.26675 0.12 0 -0.0025 -0.125 0 -0.005 -0.1225 0 -0.017 -0.125 0 0.0025 -0.125 0 0.005 -0.1225 0 0.02925 -0.125 0 0 -0.1225 0 0.005 -0.1175 0 0.0025 -0.115 0 0.005 -0.1035 0 0.02925 -0.115 0 0.0025 -0.12 0 0.02925 -0.12 0 -0.0025 -0.115 0 -0.005 -0.1175 0 -0.005 -0.1035 0 -0.017 -0.115 0 0 -0.1175 0 0 -0.1035 0 -0.0025 -0.12 0 -0.017 -0.12 0 -0.0025 0.115 0 -0.005 0.1175 0 -0.005 0.1035 0 -0.017 0.115 0 0.0025 0.115 0 0.005 0.1175 0 0.005 0.1035 0 0.02925 0.115 0 0 0.1175 0 0 0.1035 0 0.005 0.1225 0 0.0025 0.125 0 0.02925 0.125 0 0.0025 0.12 0 0.02925 0.12 0 -0.0025 0.125 0 -0.005 0.1225 0 -0.017 0.125 0 0 0.1225 0 -0.0025 0.12 0 -0.017 0.12 0 0.4925 -0.125 0 0.49 -0.1225 0 0.46575 -0.125 0 0.4975 -0.125 0 0.5 -0.1225 0 0.495 -0.1225 0 0.5 -0.1175 0 0.4975 -0.115 0 0.5 -0.1035 0 0.4975 -0.12 0 0.4925 -0.115 0 0.49 -0.1175 0 0.49 -0.1035 0 0.46575 -0.115 0 0.495 -0.1175 0 0.495 -0.1035 0 0.4925 -0.12 0 0.46575 -0.12 0 0.4925 0.115 0 0.49 0.1175 0 0.49 0.1035 0 0.46575 0.115 0 0.4975 0.115 0 0.5 0.1175 0 0.5 0.1035 0 0.495 0.1175 0 0.495 0.1035 0 0.5 0.1225 0 0.4975 0.125 0 0.4975 0.12 0 0.4925 0.125 0 0.49 0.1225 0 0.46575 0.125 0 0.495 0.1225 0 0.4925 0.12 0 0.46575 0.12 0 -0.5 -0.0805 0 -0.4975 -0.092 0 -0.5 -0.0575 0 -0.4975 -0.069 0 -0.5 -0.0345 0 -0.4975 -0.046 0 -0.5 -0.0115 0 -0.4975 -0.023 0 -0.5 0.0115 0 -0.4975 0 0 -0.5 0.0345 0 -0.4975 0.023 0 -0.5 0.0575 0 -0.4975 0.046 0 -0.5 0.0805 0 -0.4975 0.069 0 -0.4975 0.092 0 -0.49 -0.0805 0 -0.4925 -0.092 0 -0.49 -0.0575 0 -0.4925 -0.069 0 -0.49 -0.0345 0 -0.4925 -0.046 0 -0.49 -0.0115 0 -0.4925 -0.023 0 -0.49 0.0115 0 -0.4925 0 0 -0.49 0.0345 0 -0.4925 0.023 0 -0.49 0.0575 0 -0.4925 0.046 0 -0.49 0.0805 0 -0.4925 0.069 0 -0.4925 0.092 0 -0.495 -0.0805 0 -0.495 -0.0575 0 -0.495 -0.0345 0 -0.495 -0.0115 0 -0.495 0.0115 0 -0.495 0.0345 0 -0.495 0.0575 0 -0.495 0.0805 0 -0.255 -0.0805 0 -0.2525 -0.092 0 -0.255 -0.0575 0 -0.2525 -0.069 0 -0.255 -0.0345 0 -0.2525 -0.046 0 -0.255 -0.0115 0 -0.2525 -0.023 0 -0.255 0.0115 0 -0.2525 0 0 -0.255 0.0345 0 -0.2525 0.023 0 -0.255 0.0575 0 -0.2525 0.046 0 -0.255 0.0805 0 -0.2525 0.069 0 -0.2525 0.092 0 -0.245 -0.0805 0 -0.2475 -0.092 0 -0.245 -0.0575 0 -0.2475 -0.069 0 -0.245 -0.0345 0 -0.2475 -0.046 0 -0.245 -0.0115 0 -0.2475 -0.023 0 -0.245 0.0115 0 -0.2475 0 0 -0.245 0.0345 0 -0.2475 0.023 0 -0.245 0.0575 0 -0.2475 0.046 0 -0.245 0.0805 0 -0.2475 0.069 0 -0.2475 0.092 0 -0.25 -0.0805 0 -0.25 -0.0575 0 -0.25 -0.0345 0 -0.25 -0.0115 0 -0.25 0.0115 0 -0.25 0.0345 0 -0.25 0.0575 0 -0.25 0.0805 0 -0.005 -0.0805 0 -0.0025 -0.092 0 -0.005 -0.0575 0 -0.0025 -0.069 0 -0.005 -0.0345 0 -0.0025 -0.046 0 -0.005 -0.0115 0 -0.0025 -0.023 0 -0.005 0.0115 0 -0.0025 0 0 -0.005 0.0345 0 -0.0025 0.023 0 -0.005 0.0575 0 -0.0025 0.046 0 -0.005 0.0805 0 -0.0025 0.069 0 -0.0025 0.092 0 0.005 -0.0805 0 0.0025 -0.092 0 0.005 -0.0575 0 0.0025 -0.069 0 0.005 -0.0345 0 0.0025 -0.046 0 0.005 -0.0115 0 0.0025 -0.023 0 0.005 0.0115 0 0.0025 0 0 0.005 0.0345 0 0.0025 0.023 0 0.005 0.0575 0 0.0025 0.046 0 0.005 0.0805 0 0.0025 0.069 0 0.0025 0.092 0 0 -0.0805 0 0 -0.0575 0 0 -0.0345 0 0 -0.0115 0 0 0.0115 0 0 0.0345 0 0 0.0575 0 0 0.0805 0 0.49 -0.0805 0 0.4925 -0.092 0 0.49 -0.0575 0 0.4925 -0.069 0 0.49 -0.0345 0 0.4925 -0.046 0 0.49 -0.0115 0 0.4925 -0.023 0 0.49 0.0115 0 0.4925 0 0 0.49 0.0345 0 0.4925 0.023 0 0.49 0.0575 0 0.4925 0.046 0 0.49 0.0805 0 0.4925 0.069 0 0.4925 0.092 0 0.5 -0.0805 0 0.4975 -0.092 0 0.5 -0.0575 0 0.4975 -0.069 0 0.5 -0.0345 0 0.4975 -0.046 0 0.5 -0.0115 0 0.4975 -0.023 0 0.5 0.0115 0 0.4975 0 0 0.5 0.0345 0 0.4975 0.023 0 0.5 0.0575 0 0.4975 0.046 0 0.5 0.0805 0 0.4975 0.069 0 0.4975 0.092 0 0.495 -0.0805 0 0.495 -0.0575 0 0.495 -0.0345 0 0.495 -0.0115 0 0.495 0.0115 0 0.495 0.0345 0 0.495 0.0575 0 0.495 0.0805 0 -0.45475 0.125 0 -0.4665 0.1225 0 -0.43125 0.125 0 -0.443 0.1225 0 -0.40775 0.125 0 -0.4195 0.1225 0 -0.38425 0.125 0 -0.396 0.1225 0 -0.36075 0.125 0 -0.3725 0.1225 0 -0.33725 0.125 0 -0.349 0.1225 0 -0.31375 0.125 0 -0.3255 0.1225 0 -0.29025 0.125 0 -0.302 0.1225 0 -0.2785 0.1225 0 -0.45475 0.115 0 -0.4665 0.1175 0 -0.43125 0.115 0 -0.443 0.1175 0 -0.40775 0.115 0 -0.4195 0.1175 0 -0.38425 0.115 0 -0.396 0.1175 0 -0.36075 0.115 0 -0.3725 0.1175 0 -0.33725 0.115 0 -0.349 0.1175 0 -0.31375 0.115 0 -0.3255 0.1175 0 -0.29025 0.115 0 -0.302 0.1175 0 -0.2785 0.1175 0 -0.45475 0.12 0 -0.43125 0.12 0 -0.40775 0.12 0 -0.38425 0.12 0 -0.36075 0.12 0 -0.33725 0.12 0 -0.31375 0.12 0 -0.29025 0.12 0 -0.45475 -0.115 0 -0.4665 -0.1175 0 -0.43125 -0.115 0 -0.443 -0.1175 0 -0.40775 -0.115 0 -0.4195 -0.1175 0 -0.38425 -0.115 0 -0.396 -0.1175 0 -0.36075 -0.115 0 -0.3725 -0.1175 0 -0.33725 -0.115 0 -0.349 -0.1175 0 -0.31375 -0.115 0 -0.3255 -0.1175 0 -0.29025 -0.115 0 -0.302 -0.1175 0 -0.2785 -0.1175 0 -0.45475 -0.125 0 -0.4665 -0.1225 0 -0.43125 -0.125 0 -0.443 -0.1225 0 -0.40775 -0.125 0 -0.4195 -0.1225 0 -0.38425 -0.125 0 -0.396 -0.1225 0 -0.36075 -0.125 0 -0.3725 -0.1225 0 -0.33725 -0.125 0 -0.349 -0.1225 0 -0.31375 -0.125 0 -0.3255 -0.1225 0 -0.29025 -0.125 0 -0.302 -0.1225 0 -0.2785 -0.1225 0 -0.45475 -0.12 0 -0.43125 -0.12 0 -0.40775 -0.12 0 -0.38425 -0.12 0 -0.36075 -0.12 0 -0.33725 -0.12 0 -0.31375 -0.12 0 -0.29025 -0.12 0 -0.209 0.125 0 -0.221 0.1225 0 -0.185 0.125 0 -0.197 0.1225 0 -0.161 0.125 0 -0.173 0.1225 0 -0.137 0.125 0 -0.149 0.1225 0 -0.113 0.125 0 -0.125 0.1225 0 -0.089 0.125 0 -0.101 0.1225 0 -0.065 0.125 0 -0.077 0.1225 0 -0.041 0.125 0 -0.053 0.1225 0 -0.029 0.1225 0 -0.209 0.115 0 -0.221 0.1175 0 -0.185 0.115 0 -0.197 0.1175 0 -0.161 0.115 0 -0.173 0.1175 0 -0.137 0.115 0 -0.149 0.1175 0 -0.113 0.115 0 -0.125 0.1175 0 -0.089 0.115 0 -0.101 0.1175 0 -0.065 0.115 0 -0.077 0.1175 0 -0.041 0.115 0 -0.053 0.1175 0 -0.029 0.1175 0 -0.209 0.12 0 -0.185 0.12 0 -0.161 0.12 0 -0.137 0.12 0 -0.113 0.12 0 -0.089 0.12 0 -0.065 0.12 0 -0.041 0.12 0 -0.209 -0.115 0 -0.221 -0.1175 0 -0.185 -0.115 0 -0.197 -0.1175 0 -0.161 -0.115 0 -0.173 -0.1175 0 -0.137 -0.115 0 -0.149 -0.1175 0 -0.113 -0.115 0 -0.125 -0.1175 0 -0.089 -0.115 0 -0.101 -0.1175 0 -0.065 -0.115 0 -0.077 -0.1175 0 -0.041 -0.115 0 -0.053 -0.1175 0 -0.029 -0.1175 0 -0.209 -0.125 0 -0.221 -0.1225 0 -0.185 -0.125 0 -0.197 -0.1225 0 -0.161 -0.125 0 -0.173 -0.1225 0 -0.137 -0.125 0 -0.149 -0.1225 0 -0.113 -0.125 0 -0.125 -0.1225 0 -0.089 -0.125 0 -0.101 -0.1225 0 -0.065 -0.125 0 -0.077 -0.1225 0 -0.041 -0.125 0 -0.053 -0.1225 0 -0.029 -0.1225 0 -0.209 -0.12 0 -0.185 -0.12 0 -0.161 -0.12 0 -0.137 -0.12 0 -0.113 -0.12 0 -0.089 -0.12 0 -0.065 -0.12 0 -0.041 -0.12 0 0.07775 0.125 0 0.0535 0.1225 0 0.12625 0.125 0 0.102 0.1225 0 0.17475 0.125 0 0.1505 0.1225 0 0.22325 0.125 0 0.199 0.1225 0 0.27175 0.125 0 0.2475 0.1225 0 0.32025 0.125 0 0.296 0.1225 0 0.36875 0.125 0 0.3445 0.1225 0 0.41725 0.125 0 0.393 0.1225 0 0.4415 0.1225 0 0.07775 0.115 0 0.0535 0.1175 0 0.12625 0.115 0 0.102 0.1175 0 0.17475 0.115 0 0.1505 0.1175 0 0.22325 0.115 0 0.199 0.1175 0 0.27175 0.115 0 0.2475 0.1175 0 0.32025 0.115 0 0.296 0.1175 0 0.36875 0.115 0 0.3445 0.1175 0 0.41725 0.115 0 0.393 0.1175 0 0.4415 0.1175 0 0.07775 0.12 0 0.12625 0.12 0 0.17475 0.12 0 0.22325 0.12 0 0.27175 0.12 0 0.32025 0.12 0 0.36875 0.12 0 0.41725 0.12 0 0.07775 -0.115 0 0.0535 -0.1175 0 0.12625 -0.115 0 0.102 -0.1175 0 0.17475 -0.115 0 0.1505 -0.1175 0 0.22325 -0.115 0 0.199 -0.1175 0 0.27175 -0.115 0 0.2475 -0.1175 0 0.32025 -0.115 0 0.296 -0.1175 0 0.36875 -0.115 0 0.3445 -0.1175 0 0.41725 -0.115 0 0.393 -0.1175 0 0.4415 -0.1175 0 0.07775 -0.125 0 0.0535 -0.1225 0 0.12625 -0.125 0 0.102 -0.1225 0 0.17475 -0.125 0 0.1505 -0.1225 0 0.22325 -0.125 0 0.199 -0.1225 0 0.27175 -0.125 0 0.2475 -0.1225 0 0.32025 -0.125 0 0.296 -0.1225 0 0.36875 -0.125 0 0.3445 -0.1225 0 0.41725 -0.125 0 0.393 -0.1225 0 0.4415 -0.1225 0 0.07775 -0.12 0 0.12625 -0.12 0 0.17475 -0.12 0 0.22325 -0.12 0 0.27175 -0.12 0 0.32025 -0.12 0 0.36875 -0.12 0 0.41725 -0.12 0 
</DataArray>
</Points>
<Cells>
<DataArray Name="connectivity" format="ascii" type="Int64">
0 2 8 7 342 347 359 343 2 1 4 8 344 345 352 347 7 8 6 5 359 357 354 355 8 4 3 6 352 348 349 357 9 11 17 16 360 367 377 361 11 10 13 17 363 364 372 367 16 17 15 14 377 376 374 375 17 13 12 15 372 369 370 376 18 20 26 25 378 384 397 379 20 19 22 26 381 382 389 384 25 26 24 23 397 395 391 392 26 22 21 24 389 385 386 395 27 29 35 34 399 407 418 400 29 28 31 35 403 404 412 407 34 35 33 32 418 417 414 415 35 31 30 33 412 409 410 417 36 38 44 43 420 426 439 421 38 37 40 44 423 424 431 426 43 44 42 41 439 437 433 434 44 40 39 42 431 427 428 437 45 47 53 52 441 449 460 442 47 46 49 53 445 446 454 449 52 53 51 50 460 459 456 457 53 49 48 51 454 451 452 459 54 56 62 61 462 467 478 463 56 55 58 62 465 466 471 467 61 62 60 59 478 476 472 473 62 58 57 60 471 468 469 476 63 65 71 70 480 487 496 481 65 64 67 71 484 485 491 487 70 71 69 68 496 495 492 493 71 67 66 69 491 489 490 495 3 81 90 6 350 516 358 349 81 82 91 90 515 518 532 516 82 83 92 91 517 520 533 518 83 84 93 92 519 522 534 520 84 85 94 93 521 524 535 522 85 86 95 94 523 526 536 524 86 87 96 95 525 528 537 526 87 88 97 96 527 530 538 528 88 89 98 97 529 531 539 530 89 10 11 98 365 363 368 531 6 90 72 5 358 499 356 354 90 91 73 72 532 501 498 499 91 92 74 73 533 503 500 501 92 93 75 74 534 505 502 503 93 94 76 75 535 507 504 505 94 95 77 76 536 509 506 507 95 96 78 77 537 511 508 509 96 97 79 78 538 513 510 511 97 98 80 79 539 514 512 513 98 11 9 80 368 360 362 514 21 108 117 24 387 558 396 386 108 109 118 117 557 560 574 558 109 110 119 118 559 562 575 560 110 111 120 119 561 564 576 562 111 112 121 120 563 566 577 564 112 113 122 121 565 568 578 566 113 114 123 122 567 570 579 568 114 115 124 123 569 572 580 570 115 116 125 124 571 573 581 572 116 28 29 125 405 403 408 573 24 117 99 23 396 541 393 391 117 118 100 99 574 543 540 541 118 119 101 100 575 545 542 543 119 120 102 101 576 547 544 545 120 121 103 102 577 549 546 547 121 122 104 103 578 551 548 549 122 123 105 104 579 553 550 551 123 124 106 105 580 555 552 553 124 125 107 106 581 556 554 555 125 29 27 107 408 399 401 556 39 135 144 42 429 600 438 428 135 136 145 144 599 602 616 600 136 137 146 145 601 604 617 602 137 138 147 146 603 606 618 604 138 139 148 147 605 608 619 606 139 140 149 148 607 610 620 608 140 141 150 149 609 612 621 610 141 142 151 150 611 614 622 612 142 143 152 151 613 615 623 614 143 46 47 152 447 445 450 615 42 144 126 41 438 583 435 433 144 145 127 126 616 585 582 583 145 146 128 127 617 587 584 585 146 147 129 128 618 589 586 587 147 148 130 129 619 591 588 589 148 149 131 130 620 593 590 591 149 150 132 131 621 595 592 593 150 151 133 132 622 597 594 595 151 152 134 133 623 598 596 597 152 47 45 134 450 441 443 598 57 162 171 60 470 642 477 469 162 163 172 171 641 644 658 642 163 164 173 172 643 646 659 644 164 165 174 173 645 648 660 646 165 166 175 174 647 650 661 648 166 167 176 175 649 652 662 650 167 168 177 176 651 654 663 652 168 169 178 177 653 656 664 654 169 170 179 178 655 657 665 656 170 64 65 179 486 484 488 657 60 171 153 59 477 625 474 472 171 172 154 153 658 627 624 625 172 173 155 154 659 629 626 627 173 174 156 155 660 631 628 629 174 175 157 156 661 633 630 631 175 176 158 157 662 635 632 633 176 177 159 158 663 637 634 635 177 178 160 159 664 639 636 637 178 179 161 160 665 640 638 639 179 65 63 161 488 480 482 640 10 189 198 13 366 684 373 364 189 190 199 198 683 686 700 684 190 191 200 199 685 688 701 686 191 192 201 200 687 690 702 688 192 193 202 201 689 692 703 690 193 194 203 202 691 694 704 692 194 195 204 203 693 696 705 694 195 196 205 204 695 698 706 696 196 197 206 205 697 699 707 698 197 27 34 206 402 400 419 699 13 198 180 12 373 667 371 369 198 199 181 180 700 669 666 667 199 200 182 181 701 671 668 669 200 201 183 182 702 673 670 671 201 202 184 183 703 675 672 673 202 203 185 184 704 677 674 675 203 204 186 185 705 679 676 677 204 205 187 186 706 681 678 679 205 206 188 187 707 682 680 681 206 34 32 188 419 415 416 682 1 216 225 4 346 726 353 345 216 217 226 225 725 728 742 726 217 218 227 226 727 730 743 728 218 219 228 227 729 732 744 730 219 220 229 228 731 734 745 732 220 221 230 229 733 736 746 734 221 222 231 230 735 738 747 736 222 223 232 231 737 740 748 738 223 224 233 232 739 741 749 740 224 18 25 233 380 379 398 741 4 225 207 3 353 709 351 348 225 226 208 207 742 711 708 709 226 227 209 208 743 713 710 711 227 228 210 209 744 715 712 713 228 229 211 210 745 717 714 715 229 230 212 211 746 719 716 717 230 231 213 212 747 721 718 719 231 232 214 213 748 723 720 721 232 233 215 214 749 724 722 723 233 25 23 215 398 392 394 724 28 243 252 31 406 768 413 404 243 244 253 252 767 770 784 768 244 245 254 253 769 772 785 770 245 246 255 254 771 774 786 772 246 247 256 255 773 776 787 774 247 248 257 256 775 778 788 776 248 249 258 257 777 780 789 778 249 250 259 258 779 782 790 780 250 251 260 259 781 783 791 782 251 45 52 260 444 442 461 783 31 252 234 30 413 751 411 409 252 253 235 234 784 753 750 751 253 254 236 235 785 755 752 753 254 255 237 236 786 757 754 755 255 256 238 237 787 759 756 757 256 257 239 238 788 761 758 759 257 258 240 239 789 763 760 761 258 259 241 240 790 765 762 763 259 260 242 241 791 766 764 765 260 52 50 242 461 457 458 766 19 270 279 22 383 810 390 382 270 271 280 279 809 812 826 810 271 272 281 280 811 814 827 812 272 273 282 281 813 816 828 814 273 274 283 282 815 818 829 816 274 275 284 283 817 820 830 818 275 276 285 284 819 822 831 820 276 277 286 285 821 824 832 822 277 278 287 286 823 825 833 824 278 36 43 287 422 421 440 825 22 279 261 21 390 793 388 385 279 280 262 261 826 795 792 793 280 281 263 262 827 797 794 795 281 282 264 263 828 799 796 797 282 283 265 264 829 801 798 799 283 284 266 265 830 803 800 801 284 285 267 266 831 805 802 803 285 286 268 267 832 807 804 805 286 287 269 268 833 808 806 807 287 43 41 269 440 434 436 808 46 297 306 49 448 852 455 446 297 298 307 306 851 854 868 852 298 299 308 307 853 856 869 854 299 300 309 308 855 858 870 856 300 301 310 309 857 860 871 858 301 302 311 310 859 862 872 860 302 303 312 311 861 864 873 862 303 304 313 312 863 866 874 864 304 305 314 313 865 867 875 866 305 63 70 314 483 481 497 867 49 306 288 48 455 835 453 451 306 307 289 288 868 837 834 835 307 308 290 289 869 839 836 837 308 309 291 290 870 841 838 839 309 310 292 291 871 843 840 841 310 311 293 292 872 845 842 843 311 312 294 293 873 847 844 845 312 313 295 294 874 849 846 847 313 314 296 295 875 850 848 849 314 70 68 296 497 493 494 850 37 324 333 40 425 894 432 424 324 325 334 333 893 896 910 894 325 326 335 334 895 898 911 896 326 327 336 335 897 900 912 898 327 328 337 336 899 902 913 900 328 329 338 337 901 904 914 902 329 330 339 338 903 906 915 904 330 331 340 339 905 908 916 906 331 332 341 340 907 909 917 908 332 54 61 341 464 463 479 909 40 333 315 39 432 877 430 427 333 334 316 315 910 879 876 877 334 335 317 316 911 881 878 879 335 336 318 317 912 883 880 881 336 337 319 318 913 885 882 883 337 338 320 319 914 887 884 885 338 339 321 320 915 889 886 887 339 340 322 321 916 891 888 889 340 341 323 322 917 892 890 891 341 61 59 323 479 473 475 892 
</DataArray>
<DataArray Name="offsets" format="ascii" type="Int64">
8 16 24 32 40 48 56 64 72 80 88 96 104 112 120 128 136 144 152 160 168 176 184 192 200 208 216 224 232 240 248 256 264 272 280 288 296 304 312 320 328 336 344 352 360 368 376 384 392 400 408 416 424 432 440 448 456 464 472 480 488 496 504 512 520 528 536 544 552 560 568 576 584 592 600 608 616 624 632 640 648 656 664 672 680 688 696 704 712 720 728 736 744 752 760 768 776 784 792 800 808 816 824 832 840 848 856 864 872 880 888 896 904 912 920 928 936 944 952 960 968 976 984 992 1000 1008 1016 1024 1032 1040 1048 1056 1064 1072 1080 1088 1096 1104 1112 1120 1128 1136 1144 1152 1160 1168 1176 1184 1192 1200 1208 1216 1224 1232 1240 1248 1256 1264 1272 1280 1288 1296 1304 1312 1320 1328 1336 1344 1352 1360 1368 1376 1384 1392 1400 1408 1416 1424 1432 1440 1448 1456 1464 1472 1480 1488 1496 1504 1512 1520 1528 1536 1544 1552 1560 1568 1576 1584 1592 1600 1608 1616 1624 1632 1640 1648 1656 1664 1672 1680 1688 1696 1704 1712 1720 1728 1736 1744 1752 1760 1768 1776 1784 1792 1800 1808 1816 1824 1832 1840 1848 1856 
</DataArray>
<DataArray Name="types" format="ascii" type="Int8">
23 23 23 23 23 23 23 23 23 23 23 23 23 23 23 23 23 23 23 23 23 23 23 23 23 23 23 23 23 23 23 23 23 23 23 23 23 23 23 23 23 23 23 23 23 23 23 23 23 23 23 23 23 23 23 23 23 23 23 23 23 23 23 23 23 23 23 23 23 23 23 23 23 23 23 23 23 23 23 23 23 23 23 23 23 23 23 23 23 23 23 23 23 23 23 23 23 23 23 23 23 23 23 23 23 23 23 23 23 23 23 23 23 23 23 23 23 23 23 23 23 23 23 23 23 23 23 23 23 23 23 23 23 23 23 23 23 23 23 23 23 23 23 23 23 23 23 23 23 23 23 23 23 23 23 23 23 23 23 23 23 23 23 23 23 23 23 23 23 23 23 23 23 23 23 23 23 23 23 23 23 23 23 23 23 23 23 23 23 23 23 23 23 23 23 23 23 23 23 23 23 23 23 23 23 23 23 23 23 23 23 23 23 23 23 23 23 23 23 23 23 23 23 23 23 23 23 23 23 23 23 23 
</DataArray>
</Cells>
</Piece>
</UnstructuredGrid>
</VTKFile>
