<?xml version="1.0"?>
<VTKFile byte_order="LittleEndian" type="UnstructuredGrid" version="0.1">
<UnstructuredGrid>
<Piece NumberOfCells="232" NumberOfPoints="918">
<PointData>
<DataArray Name="Warping_X" format="ascii" type="Float64">
0.0442794 0.0436756 0.0438446 0.0412999 0.0425645 0.0426242 0.0419836 0.0438201 0.0432644 -0.0426242 -0.0412999 -0.0419836 -0.0436756 -0.0425645 -0.0442794 -0.0438446 -0.0438201 -0.0432644 0.0201502 0.0193222 0.0193854 0.0169023 0.0180449 0.0174967 0.0174139 0.0187691 0.0184413 -0.0174967 -0.0169023 -0.0174139 -0.0193222 -0.0180449 -0.0201502 -0.0193854 -0.0187691 -0.0184413 0.00553202 0.00522523 0.00490316 0.00310211 0.0040734 0.00358467 0.00376154 0.00452135 0.00433612 -0.00358467 -0.00310211 -0.00376154 -0.00522523 -0.0040734 -0.00553202 -0.00490316 -0.00452135 -0.00433612 0.0515412 0.0515672 0.0511398 0.0500176 0.0513277 0.0475703 0.0490883 0.0495957 0.0506187 -0.0475703 -0.0500176 -0.0490883 -0.0515672 -0.0513277 -0.0515412 -0.0511398 -0.0495957 -0.0506187 0.033667 0.0250268 0.0166047 0.00827766 -1.01448e-14 -0.00827766 -0.0166047 -0.0250268 -0.033667 0.033197 0.0247565 0.0164368 0.00819454 -1.01693e-14 -0.00819454 -0.0164368 -0.0247565 -0.033197 0.03343 0.024896 0.0165228 0.00823735 -1.01497e-14 -0.00823735 -0.0165228 -0.024896 -0.03343 0.0139377 0.0102535 0.00676473 0.00335754 -7.75721e-15 -0.00335754 -0.00676473 -0.0102535 -0.0139377 0.0137163 0.0101217 0.00668202 0.00331649 -7.72705e-15 -0.00331649 -0.00668202 -0.0101217 -0.0137163 0.013849 0.0101971 0.00672583 0.00333842 -7.74055e-15 -0.00333842 -0.00672583 -0.0101971 -0.013849 0.0029414 0.00200979 0.00127459 0.000612061 -3.77207e-16 -0.000612061 -0.00127459 -0.00200979 -0.0029414 0.00287716 0.00200514 0.00127617 0.000613261 -3.24479e-16 -0.000613261 -0.00127617 -0.00200514 -0.00287716 0.00296477 0.00202203 0.00127869 0.000614192 -3.49339e-16 -0.000614192 -0.00127869 -0.00202203 -0.00296477 0.0388365 0.0290452 0.01931 0.00963109 2.38595e-14 -0.00963109 -0.01931 -0.0290452 -0.0388365 0.039481 0.0293448 0.0194854 0.00971689 2.38658e-14 -0.00971689 -0.0194854 -0.0293448 -0.039481 0.0391982 0.0292062 0.0194006 0.00967542 2.38632e-14 -0.00967542 -0.0194006 -0.0292062 -0.0391982 -0.0398006 -0.0355648 -0.0319901 -0.0289069 -0.0263165 -0.0242124 -0.0226005 -0.0214829 -0.0210042 -0.0360874 -0.0321856 -0.0285788 -0.0254535 -0.0228079 -0.0206504 -0.0189757 -0.0177846 -0.0169358 -0.0379588 -0.0338786 -0.0302861 -0.0271816 -0.0245636 -0.0224328 -0.0207893 -0.019634 -0.0189637 0.0360874 0.0321856 0.0285788 0.0254535 0.0228079 0.0206504 0.0189757 0.0177846 0.0169358 0.0398006 0.0355648 0.0319901 0.0289069 0.0263165 0.0242124 0.0226005 0.0214829 0.0210042 0.0379588 0.0338786 0.0302861 0.0271816 0.0245636 0.0224328 0.0207893 0.019634 0.0189637 -0.0165407 -0.0132537 -0.010647 -0.00854744 -0.0069594 -0.00587633 -0.00530542 -0.00524038 -0.00586326 -0.0123263 -0.00936112 -0.00672662 -0.00459893 -0.00297089 -0.00185084 -0.00123185 -0.00112316 -0.00134427 -0.0144285 -0.0113082 -0.00868818 -0.0065745 -0.00496646 -0.00386488 -0.00326995 -0.00318262 -0.00360117 0.0123263 0.00936112 0.00672662 0.00459893 0.00297089 0.00185084 0.00123185 0.00112316 0.00134427 0.0165407 0.0132537 0.010647 0.00854744 0.0069594 0.00587633 0.00530542 0.00524038 0.00586326 0.0144285 0.0113082 0.00868818 0.0065745 0.00496646 0.00386488 0.00326995 0.00318262 0.00360117 0.00314076 0.00846694 0.0109572 0.0105688 0.00730321 0.00116781 -0.00787072 -0.0197065 -0.0346985 0.00530103 0.0109324 0.0136779 0.0135773 0.0106306 0.00482595 -0.0038054 -0.0153778 -0.0295164 0.00423342 0.00969807 0.0123134 0.0120685 0.00896224 0.00299224 -0.00584269 -0.0175469 -0.0321154 -0.00530103 -0.0109324 -0.0136779 -0.0135773 -0.0106306 -0.00482595 0.0038054 0.0153778 0.0295164 -0.00314076 -0.00846694 -0.0109572 -0.0105688 -0.00730321 -0.00116781 0.00787072 0.0197065 0.0346985 -0.00423342 -0.00969807 -0.0123134 -0.0120685 -0.00896224 -0.00299224 0.00584269 0.0175469 0.0321154 0.043751 0.0440148 0.0433942 0.0431352 0.0395017 0.0435787 0.0418982 0.0416835 0.038303 0.0407546 0.0429996 0.040179 0.0423381 0.0434441 0.037937 0.0428059 0.0380997 0.0436231 -0.0423381 -0.0434441 -0.037937 -0.0416835 -0.0418982 -0.038303 -0.0407546 -0.0428059 -0.0380997 -0.0431352 -0.0433942 -0.0395017 -0.0429996 -0.040179 -0.043751 -0.0440148 -0.0435787 -0.0436231 0.0193822 0.0194482 0.0189233 0.0189617 0.0186764 0.0163573 0.0189733 0.0174609 0.0172241 0.0164396 0.0159506 0.0183303 0.0161756 0.0175248 0.0181417 0.0162525 0.0186554 0.0180733 0.0163328 0.0186856 0.0188075 -0.0175248 -0.0181417 -0.0162525 -0.0186554 -0.0172241 -0.0174609 -0.0164396 -0.0159506 -0.0180733 -0.0163328 -0.0186764 -0.0189617 -0.0163573 -0.0183303 -0.0161756 -0.0193822 -0.0194482 -0.0189233 -0.0189733 -0.0186856 -0.0188075 0.00476566 0.0049901 0.00402919 0.00455876 0.00466221 0.000630274 0.00466444 0.00355223 0.00353877 0.0039149 -0.00152779 0.00430858 -0.000454447 0.00376811 0.00408616 0.00400021 0.0039103 0.00423265 0.00397822 0.00452657 0.00399633 -0.00376811 -0.00408616 -0.00400021 -0.0039103 -0.00353877 -0.00355223 -0.0039149 0.00152779 -0.00423265 -0.00397822 -0.00466221 -0.00455876 -0.000630274 -0.00430858 0.000454447 -0.00476566 -0.0049901 -0.00402919 -0.00466444 -0.00452657 -0.00399633 0.0507472 0.0505944 0.0392037 0.0508842 0.0513157 0.050912 0.0510872 0.0496226 0.0444428 0.0511265 0.0484303 0.0485162 0.0446581 0.0416637 0.0501847 0.0445665 0.0502533 0.0404529 -0.0484303 -0.0485162 -0.0446581 -0.0416637 -0.0496226 -0.0510872 -0.0444428 -0.0501847 -0.0445665 -0.0513157 -0.0508842 -0.0511265 -0.0507472 -0.0505944 -0.0392037 -0.050912 -0.0502533 -0.0404529 0.0289213 0.0335405 0.020584 0.0249633 0.0122945 0.0165634 0.00409192 0.00825763 -0.00409192 -1.01469e-14 -0.0122945 -0.00825763 -0.020584 -0.0165634 -0.0289213 -0.0249633 -0.0335405 0.0292644 0.0333051 0.0208434 0.0248282 0.0124511 0.0164793 0.00414436 0.00821607 -0.00414436 -1.01577e-14 -0.0124511 -0.00821607 -0.0208434 -0.0164793 -0.0292644 -0.0248282 -0.0333051 0.0290981 0.0207144 0.0123739 0.00411837 -0.00411837 -0.0123739 -0.0207144 -0.0290981 0.0118122 0.0138782 0.00840872 0.0102289 0.00498397 0.00674445 0.00165633 0.0033482 -0.00165633 -7.74838e-15 -0.00498397 -0.0033482 -0.00840872 -0.00674445 -0.0118122 -0.0102289 -0.0138782 0.0119831 0.0137689 0.00853718 0.0101626 0.00506142 0.00670318 0.00168226 0.00332765 -0.00168226 -7.73283e-15 -0.00506142 -0.00332765 -0.00853718 -0.00670318 -0.0119831 -0.0101626 -0.0137689 0.0119096 0.00847382 0.00502396 0.0016695 -0.0016695 -0.00502396 -0.00847382 -0.0119096 0.00237488 0.00293112 0.00166175 0.00202148 0.000938333 0.00127528 0.000307488 0.000613478 -0.000307488 -3.63052e-16 -0.000938333 -0.000613478 -0.00166175 -0.00127528 -0.00237488 -0.00202148 -0.00293112 0.00235746 0.00289543 0.00165593 0.0020199 0.000935748 0.00127583 0.000306664 0.000614128 -0.000306664 -3.36516e-16 -0.000935748 -0.000614128 -0.00165593 -0.00127583 -0.00235746 -0.0020199 -0.00289543 0.00238234 0.00166058 0.000938398 0.000307303 -0.000307303 -0.000938398 -0.00166058 -0.00238234 0.0342723 0.0389933 0.0244394 0.0291317 0.0146103 0.0193537 0.00486431 0.00965364 -0.00486431 2.38616e-14 -0.0146103 -0.00965364 -0.0244394 -0.0193537 -0.0342723 -0.0291317 -0.0389933 0.0339448 0.0393222 0.0241764 0.02928 0.0144495 0.0194419 0.00481038 0.00969644 -0.00481038 2.38674e-14 -0.0144495 -0.00969644 -0.0241764 -0.0194419 -0.0339448 -0.02928 -0.0393222 0.0341206 0.0243095 0.0145311 0.00483759 -0.00483759 -0.0145311 -0.0243095 -0.0341206 -0.0350491 -0.0388835 -0.0312198 -0.0347282 -0.0279705 -0.0311387 -0.0252124 -0.0280455 -0.0229362 -0.0254409 -0.0211414 -0.0233238 -0.0198372 -0.0216956 -0.0190979 -0.0205635 -0.0199901 -0.0366075 -0.0370256 -0.0327775 -0.0330253 -0.0293319 -0.0294337 -0.0263676 -0.0263175 -0.023895 -0.0236862 -0.0219154 -0.0215417 -0.0204205 -0.0198833 -0.0193349 -0.0187048 -0.0179466 -0.0358381 -0.0320022 -0.0286537 -0.0257923 -0.0234179 -0.0215308 -0.0201317 -0.0192217 0.0366075 0.0370256 0.0327775 0.0330253 0.0293319 0.0294337 0.0263676 0.0263175 0.023895 0.0236862 0.0219154 0.0215417 0.0204205 0.0198833 0.0193349 0.0187048 0.0179466 0.0350491 0.0388835 0.0312198 0.0347282 0.0279705 0.0311387 0.0252124 0.0280455 0.0229362 0.0254409 0.0211414 0.0233238 0.0198372 0.0216956 0.0190979 0.0205635 0.0199901 0.0358381 0.0320022 0.0286537 0.0257923 0.0234179 0.0215308 0.0201317 0.0192217 -0.0128356 -0.0154876 -0.00988598 -0.012287 -0.00752386 -0.009668 -0.00566953 -0.00756224 -0.00431532 -0.00596376 -0.0034615 -0.00487191 -0.00311487 -0.00428788 -0.00335264 -0.00421793 -0.00473275 -0.0127281 -0.0133807 -0.00993902 -0.0103282 -0.00756814 -0.00770877 -0.00570083 -0.00558662 -0.00434533 -0.00396922 -0.00350239 -0.00285779 -0.00316595 -0.00225223 -0.00325648 -0.00214707 -0.0024748 -0.0127881 -0.00991554 -0.00754835 -0.00568741 -0.00433254 -0.00348427 -0.0031434 -0.00331121 0.0127281 0.0133807 0.00993902 0.0103282 0.00756814 0.00770877 0.00570083 0.00558662 0.00434533 0.00396922 0.00350239 0.00285779 0.00316595 0.00225223 0.00325648 0.00214707 0.0024748 0.0128356 0.0154876 0.00988598 0.012287 0.00752386 0.009668 0.00566953 0.00756224 0.00431532 0.00596376 0.0034615 0.00487191 0.00311487 0.00428788 0.00335264 0.00421793 0.00473275 0.0127881 0.00991554 0.00754835 0.00568741 0.00433254 0.00348427 0.0031434 0.00331121 0.00689278 0.00368102 0.0112031 0.00908236 0.0126227 0.0116342 0.0112005 0.011318 0.00694345 0.0081321 -0.00015028 0.00207896 -0.0100974 -0.00685654 -0.0229616 -0.0186304 -0.0334056 0.00783079 0.004766 0.0116103 0.0103164 0.012563 0.0129955 0.0106349 0.012823 0.00581612 0.00979619 -0.0018946 0.00390965 -0.0124856 -0.0048258 -0.0258902 -0.0164563 -0.0308293 0.00736079 0.0114045 0.0125904 0.0109152 0.00637733 -0.00102494 -0.0112943 -0.0244307 -0.00783079 -0.004766 -0.0116103 -0.0103164 -0.012563 -0.0129955 -0.0106349 -0.012823 -0.00581612 -0.00979619 0.0018946 -0.00390965 0.0124856 0.0048258 0.0258902 0.0164563 0.0308293 -0.00689278 -0.00368102 -0.0112031 -0.00908236 -0.0126227 -0.0116342 -0.0112005 -0.011318 -0.00694345 -0.0081321 0.00015028 -0.00207896 0.0100974 0.00685654 0.0229616 0.0186304 0.0334056 -0.00736079 -0.0114045 -0.0125904 -0.0109152 -0.00637733 0.00102494 0.0112943 0.0244307 
</DataArray>
<DataArray Name="Warping_Y" format="ascii" type="Float64">
0.00297424 0.00208558 0.00261342 0.00196153 0.00210663 0.00294895 0.0027239 0.0032747 0.00267735 0.00294895 0.00196153 0.0027239 0.00208558 0.00210663 0.00297424 0.00261342 0.0032747 0.00267735 0.0142588 0.0116155 0.0128849 0.0117132 0.0116344 0.0139767 0.0129355 0.0141327 0.0128816 0.0139767 0.0117132 0.0129355 0.0116155 0.0116344 0.0142588 0.0128849 0.0141327 0.0128816 -0.00754793 -0.0101904 -0.00886599 -0.00993921 -0.0102098 -0.00770955 -0.00882942 -0.00758885 -0.00887205 -0.00770955 -0.00993921 -0.00882942 -0.0101904 -0.0102098 -0.00754793 -0.00886599 -0.00758885 -0.00887205 0.00840576 0.0072461 0.00757798 0.0072425 0.00673543 0.00847524 0.00746613 0.00837772 0.00749748 0.00847524 0.0072425 0.00746613 0.0072461 0.00673543 0.00840576 0.00757798 0.00837772 0.00749748 0.00112814 0.000167583 -0.000607993 -0.0010611 -0.00121455 -0.0010611 -0.000607993 0.000167583 0.00112814 0.00157803 0.000403523 -0.000336222 -0.000801382 -0.000952369 -0.000801382 -0.000336222 0.000403523 0.00157803 0.00132928 0.000247788 -0.000508361 -0.000966395 -0.00111847 -0.000966395 -0.000508361 0.000247788 0.00132928 0.012072 0.0117311 0.0113269 0.0111113 0.0110343 0.0111113 0.0113269 0.0117311 0.012072 0.0124957 0.0117858 0.0114474 0.0112131 0.0111408 0.0112131 0.0114474 0.0117858 0.0124957 0.0122684 0.0117397 0.0113695 0.011145 0.0110705 0.011145 0.0113695 0.0117397 0.0122684 -0.00895404 -0.00879044 -0.00882605 -0.00881896 -0.00882183 -0.00881896 -0.00882605 -0.00879044 -0.00895404 -0.00864904 -0.00882005 -0.00879352 -0.00880405 -0.00880243 -0.00880405 -0.00879352 -0.00882005 -0.00864904 -0.00881967 -0.00880956 -0.00880995 -0.00881074 -0.00881123 -0.00881074 -0.00880995 -0.00880956 -0.00881967 0.00856354 0.00973911 0.0104712 0.0109337 0.011083 0.0109337 0.0104712 0.00973911 0.00856354 0.00908051 0.0100136 0.0107902 0.0112388 0.0113914 0.0112388 0.0107902 0.0100136 0.00908051 0.00886993 0.00992514 0.0106711 0.0111237 0.0112743 0.0111237 0.0106711 0.00992514 0.00886993 0.00506144 0.00848841 0.0113976 0.0136606 0.0152991 0.0163578 0.0168837 0.0169009 0.0163167 0.00483874 0.00825799 0.0111667 0.0134306 0.0150697 0.0161292 0.0166555 0.0166713 0.0160793 0.00497622 0.00836792 0.0112711 0.0135335 0.0151729 0.0162327 0.0167585 0.0167727 0.0161735 0.00483874 0.00825799 0.0111667 0.0134306 0.0150697 0.0161292 0.0166555 0.0166713 0.0160793 0.00506144 0.00848841 0.0113976 0.0136606 0.0152991 0.0163578 0.0168837 0.0169009 0.0163167 0.00497622 0.00836792 0.0112711 0.0135335 0.0151729 0.0162327 0.0167585 0.0167727 0.0161735 0.00903613 0.00740707 0.0057764 0.00404894 0.00225013 0.000428709 -0.00136608 -0.00310616 -0.0048682 0.00899841 0.0073482 0.00571407 0.00398714 0.00218923 0.000368776 -0.00142529 -0.00316721 -0.00494244 0.00903135 0.00737834 0.00574377 0.0040162 0.00221857 0.000398404 -0.00139625 -0.00313869 -0.00491874 0.00899841 0.0073482 0.00571407 0.00398714 0.00218923 0.000368776 -0.00142529 -0.00316721 -0.00494244 0.00903613 0.00740707 0.0057764 0.00404894 0.00225013 0.000428709 -0.00136608 -0.00310616 -0.0048682 0.00903135 0.00737834 0.00574377 0.0040162 0.00221857 0.000398404 -0.00139625 -0.00313869 -0.00491874 -0.022348 -0.0296836 -0.0344576 -0.0368417 -0.0365806 -0.0333743 -0.0268885 -0.0170152 -0.00368215 -0.0221101 -0.0294655 -0.0342585 -0.0366604 -0.0364168 -0.033228 -0.0267597 -0.0169048 -0.00358955 -0.0222347 -0.0295617 -0.0343416 -0.0367319 -0.0364769 -0.0332768 -0.026799 -0.0169366 -0.00364208 -0.0221101 -0.0294655 -0.0342585 -0.0366604 -0.0364168 -0.033228 -0.0267597 -0.0169048 -0.00358955 -0.022348 -0.0296836 -0.0344576 -0.0368417 -0.0365806 -0.0333743 -0.0268885 -0.0170152 -0.00368215 -0.0222347 -0.0295617 -0.0343416 -0.0367319 -0.0364769 -0.0332768 -0.026799 -0.0169366 -0.00364208 0.00272825 0.00311556 0.00216597 0.00210262 0.00282011 0.00264654 0.00204899 0.00243295 0.000288648 0.00313395 0.00231957 0.00298888 0.00289851 0.00317651 0.00368303 0.00268871 0.00197207 0.00290871 0.00289851 0.00317651 0.00368303 0.00243295 0.00204899 0.000288648 0.00313395 0.00268871 0.00197207 0.00210262 0.00216597 0.00282011 0.00231957 0.00298888 0.00272825 0.00311556 0.00264654 0.00290871 0.0135923 0.0142003 0.0155965 0.0121291 0.0116174 0.00960173 0.0128893 0.0116677 0.0123799 0.0117215 0.0096946 0.0122311 0.0096558 0.0134767 0.0140634 0.0134635 0.0158956 0.0129038 0.0125812 0.0135549 0.015739 0.0134767 0.0140634 0.0134635 0.0158956 0.0123799 0.0116677 0.0117215 0.0096946 0.0129038 0.0125812 0.0116174 0.0121291 0.00960173 0.0122311 0.0096558 0.0135923 0.0142003 0.0155965 0.0128893 0.0135549 0.015739 -0.0081061 -0.00755666 -0.00536455 -0.00964123 -0.0102146 -0.0164974 -0.00886394 -0.01009 -0.00938342 -0.0090996 -0.0167656 -0.00960939 -0.0166605 -0.00827784 -0.00763639 -0.00844758 -0.0052953 -0.00884197 -0.00880245 -0.00819646 -0.00534809 -0.00827784 -0.00763639 -0.00844758 -0.0052953 -0.00938342 -0.01009 -0.0090996 -0.0167656 -0.00884197 -0.00880245 -0.0102146 -0.00964123 -0.0164974 -0.00960939 -0.0166605 -0.0081061 -0.00755666 -0.00536455 -0.00886394 -0.00819646 -0.00534809 0.00831814 0.00838581 0.00366221 0.00745326 0.0070041 0.00754684 0.00690808 0.00728289 0.00620691 0.00724544 0.00788771 0.00841408 0.0100849 0.00357806 0.00748914 0.00820148 0.00811814 0.00362567 0.00788771 0.00841408 0.0100849 0.00357806 0.00728289 0.00690808 0.00620691 0.00748914 0.00820148 0.0070041 0.00745326 0.00724544 0.00831814 0.00838581 0.00366221 0.00754684 0.00811814 0.00362567 0.00233458 0.00122503 0.00139942 0.000206838 0.000770178 -0.000559068 0.000456408 -0.00101494 0.000456408 -0.00116756 0.000770178 -0.00101494 0.00139942 -0.000559068 0.00233458 0.000206838 0.00122503 -0.000770925 0.001423 -0.00168528 0.000334301 -0.00227564 -0.000426005 -0.00257319 -0.000884164 -0.00257319 -0.0010369 -0.00227564 -0.000884164 -0.00168528 -0.000426005 -0.000770925 0.000334301 0.001423 0.000758929 -0.000161818 -0.000770119 -0.00107547 -0.00107547 -0.000770119 -0.000161818 0.000758929 0.0126411 0.0121823 0.0121914 0.0117295 0.0118719 0.0113494 0.0117144 0.0111271 0.0117144 0.0110522 0.0118719 0.0111271 0.0121914 0.0113494 0.0126411 0.0117295 0.0121823 0.0113617 0.0123523 0.0109056 0.0117727 0.0106278 0.011405 0.0104857 0.0111795 0.0104857 0.0111047 0.0106278 0.0111795 0.0109056 0.011405 0.0113617 0.0117727 0.0123523 0.0119902 0.0115393 0.0112414 0.0110918 0.0110918 0.0112414 0.0115393 0.0119902 -0.00866029 -0.00886889 -0.00866649 -0.00880704 -0.00868866 -0.00881577 -0.00869769 -0.00881546 -0.00869769 -0.00881609 -0.00868866 -0.00881546 -0.00866649 -0.00881577 -0.00866029 -0.00880704 -0.00886889 -0.00894071 -0.00874492 -0.00894786 -0.0088087 -0.00893163 -0.00880337 -0.00892479 -0.00880669 -0.00892479 -0.00880703 -0.00893163 -0.00880669 -0.00894786 -0.00880337 -0.00894071 -0.0088087 -0.00874492 -0.00880776 -0.00880813 -0.00880991 -0.00881078 -0.00881078 -0.00880991 -0.00880813 -0.00880776 0.0111915 0.0087391 0.0121099 0.00982419 0.0126982 0.0105748 0.0129931 0.0110292 0.0129931 0.0111803 0.0126982 0.0110292 0.0121099 0.0105748 0.0111915 0.00982419 0.0087391 0.00756556 0.00897686 0.00849882 0.00997094 0.00912357 0.0107315 0.00943479 0.0111827 0.00943479 0.011334 0.00912357 0.0111827 0.00849882 0.0107315 0.00756556 0.00997094 0.00897686 0.0094165 0.0103272 0.0109299 0.0112321 0.0112321 0.0109299 0.0103272 0.0094165 0.00662779 0.00501903 0.00969788 0.00842904 0.0122822 0.0113338 0.0142282 0.0135967 0.0155763 0.0152355 0.0163649 0.0162948 0.0166341 0.0168206 0.0162724 0.016836 0.0162416 0.00693148 0.00490683 0.00999819 0.00831427 0.0125818 0.0112182 0.0145267 0.0134817 0.0158738 0.0151208 0.0166613 0.0161805 0.0169297 0.0167065 0.0165663 0.0167215 0.0161215 0.00677046 0.00984338 0.0124273 0.0143733 0.0157212 0.0165098 0.016779 0.0164222 0.00693148 0.00490683 0.00999819 0.00831427 0.0125818 0.0112182 0.0145267 0.0134817 0.0158738 0.0151208 0.0166613 0.0161805 0.0169297 0.0167065 0.0165663 0.0167215 0.0161215 0.00662779 0.00501903 0.00969788 0.00842904 0.0122822 0.0113338 0.0142282 0.0135967 0.0155763 0.0152355 0.0163649 0.0162948 0.0166341 0.0168206 0.0162724 0.016836 0.0162416 0.00677046 0.00984338 0.0124273 0.0143733 0.0157212 0.0165098 0.016779 0.0164222 0.00824755 0.009037 0.00651977 0.0073928 0.00484155 0.00575986 0.00307407 0.00403231 0.00126399 0.00223408 -0.000548242 0.000413268 -0.0023132 -0.00138142 -0.00416551 -0.00312314 -0.00489653 0.008334 0.00901802 0.00660164 0.00736347 0.00492199 0.00572868 0.00315302 0.00400142 0.00134161 0.00220363 -0.000472092 0.000383311 -0.00223842 -0.00141107 -0.00409375 -0.00315356 -0.00493444 0.00828408 0.00656061 0.00488185 0.00311424 0.00130388 -0.000508462 -0.00227397 -0.00412096 0.008334 0.00901802 0.00660164 0.00736347 0.00492199 0.00572868 0.00315302 0.00400142 0.00134161 0.00220363 -0.000472092 0.000383311 -0.00223842 -0.00141107 -0.00409375 -0.00315356 -0.00493444 0.00824755 0.009037 0.00651977 0.0073928 0.00484155 0.00575986 0.00307407 0.00403231 0.00126399 0.00223408 -0.000548242 0.000413268 -0.0023132 -0.00138142 -0.00416551 -0.00312314 -0.00489653 0.00828408 0.00656061 0.00488185 0.00311424 0.00130388 -0.000508462 -0.00227397 -0.00412096 -0.0260661 -0.022285 -0.0320544 -0.0296241 -0.0356695 -0.0343993 -0.0367738 -0.0367871 -0.0350723 -0.0365288 -0.0302964 -0.0333257 -0.0220421 -0.0268438 -0.0107479 -0.0169764 -0.00366357 -0.0263055 -0.0221658 -0.032275 -0.0295152 -0.0358714 -0.0342997 -0.0369572 -0.0366964 -0.0352371 -0.0364469 -0.0304427 -0.0332526 -0.0221697 -0.0267793 -0.0108576 -0.0169216 -0.0036162 -0.0261818 -0.0321565 -0.0357603 -0.0368539 -0.0351419 -0.0303551 -0.0220919 -0.0107852 -0.0263055 -0.0221658 -0.032275 -0.0295152 -0.0358714 -0.0342997 -0.0369572 -0.0366964 -0.0352371 -0.0364469 -0.0304427 -0.0332526 -0.0221697 -0.0267793 -0.0108576 -0.0169216 -0.0036162 -0.0260661 -0.022285 -0.0320544 -0.0296241 -0.0356695 -0.0343993 -0.0367738 -0.0367871 -0.0350723 -0.0365288 -0.0302964 -0.0333257 -0.0220421 -0.0268438 -0.0107479 -0.0169764 -0.00366357 -0.0261818 -0.0321565 -0.0357603 -0.0368539 -0.0351419 -0.0303551 -0.0220919 -0.0107852 
</DataArray>
<DataArray Name="Warping_Z" format="ascii" type="Float64">
0 0 0 0 0 0 0 0 0 0 0 0 0 0 0 0 0 0 0 0 0 0 0 0 0 0 0 0 0 0 0 0 0 0 0 0 0 0 0 0 0 0 0 0 0 0 0 0 0 0 0 0 0 0 0 0 0 0 0 0 0 0 0 0 0 0 0 0 0 0 0 0 0 0 0 0 0 0 0 0 0 0 0 0 0 0 0 0 0 0 0 0 0 0 0 0 0 0 0 0 0 0 0 0 0 0 0 0 0 0 0 0 0 0 0 0 0 0 0 0 0 0 0 0 0 0 0 0 0 0 0 0 0 0 0 0 0 0 0 0 0 0 0 0 0 0 0 0 0 0 0 0 0 0 0 0 0 0 0 0 0 0 0 0 0 0 0 0 0 0 0 0 0 0 0 0 0 0 0 0 0 0 0 0 0 0 0 0 0 0 0 0 0 0 0 0 0 0 0 0 0 0 0 0 0 0 0 0 0 0 0 0 0 0 0 0 0 0 0 0 0 0 0 0 0 0 0 0 0 0 0 0 0 0 0 0 0 0 0 0 0 0 0 0 0 0 0 0 0 0 0 0 0 0 0 0 0 0 0 0 0 0 0 0 0 0 0 0 0 0 0 0 0 0 0 0 0 0 0 0 0 0 0 0 0 0 0 0 0 0 0 0 0 0 0 0 0 0 0 0 0 0 0 0 0 0 0 0 0 0 0 0 0 0 0 0 0 0 0 0 0 0 0 0 0 0 0 0 0 0 0 0 0 0 0 0 0 0 0 0 0 0 0 0 0 0 0 0 0 0 0 0 0 0 0 0 0 0 0 0 0 0 0 0 0 0 0 0 0 0 0 0 0 0 0 0 0 0 0 0 0 0 0 0 0 0 0 0 0 0 0 0 0 0 0 0 0 0 0 0 0 0 0 0 0 0 0 0 0 0 0 0 0 0 0 0 0 0 0 0 0 0 0 0 0 0 0 0 0 0 0 0 0 0 0 0 0 0 0 0 0 0 0 0 0 0 0 0 0 0 0 0 0 0 0 0 0 0 0 0 0 0 0 0 0 0 0 0 0 0 0 0 0 0 0 0 0 0 0 0 0 0 0 0 0 0 0 0 0 0 0 0 0 0 0 0 0 0 0 0 0 0 0 0 0 0 0 0 0 0 0 0 0 0 0 0 0 0 0 0 0 0 0 0 0 0 0 0 0 0 0 0 0 0 0 0 0 0 0 0 0 0 0 0 0 0 0 0 0 0 0 0 0 0 0 0 0 0 0 0 0 0 0 0 0 0 0 0 0 0 0 0 0 0 0 0 0 0 0 0 0 0 0 0 0 0 0 0 0 0 0 0 0 0 0 0 0 0 0 0 0 0 0 0 0 0 0 0 0 0 0 0 0 0 0 0 0 0 0 0 0 0 0 0 0 0 0 0 0 0 0 0 0 0 0 0 0 0 0 0 0 0 0 0 0 0 0 0 0 0 0 0 0 0 0 0 0 0 0 0 0 0 0 0 0 0 0 0 0 0 0 0 0 0 0 0 0 0 0 0 0 0 0 0 0 0 0 0 0 0 0 0 0 0 0 0 0 0 0 0 0 0 0 0 0 0 0 0 0 0 0 0 0 0 0 0 0 0 0 0 0 0 0 0 0 0 0 0 0 0 0 0 0 0 0 0 0 0 0 0 0 0 0 0 0 0 0 0 0 0 0 0 0 0 0 0 0 0 0 0 0 0 0 0 0 0 0 0 0 0 0 0 0 0 0 0 0 0 0 0 0 0 0 0 0 0 0 0 0 0 0 0 0 0 0 0 0 0 0 0 0 0 0 0 0 0 0 0 0 0 0 0 0 0 0 0 0 0 0 0 0 0 0 0 0 0 0 0 0 0 0 0 0 0 0 0 0 0 0 0 0 0 0 0 0 0 0 0 0 0 0 0 0 0 0 0 0 0 0 0 0 0 0 0 0 0 0 0 0 0 0 0 0 0 0 0 0 0 0 0 0 0 0 0 0 0 0 0 0 0 0 0 0 0 0 0 0 0 0 0 0 0 0 0 0 0 0 0 0 0 0 0 0 0 0 0 0 0 
</DataArray>
</PointData>
<CellData>
<DataArray Name="MaterialId" format="ascii" type="Float64">
3 3 3 3 3 3 3 3 3 3 3 3 3 3 3 3 3 3 3 3 3 3 3 3 3 3 3 3 3 3 3 3 1 1 1 1 1 1 1 1 1 1 1 1 1 1 1 1 1 1 1 1 1 1 1 1 1 1 1 1 1 1 1 1 1 1 1 1 1 1 1 1 1 1 1 1 1 1 1 1 1 1 1 1 1 1 1 1 1 1 1 1 1 1 1 1 1 1 1 1 1 1 1 1 1 1 1 1 1 1 1 1 3 3 3 3 3 3 3 3 3 3 3 3 3 3 3 3 3 3 3 3 3 3 3 3 3 3 3 3 3 3 3 3 3 3 3 3 3 3 3 3 3 3 3 3 3 3 3 3 3 3 3 3 3 3 3 3 3 3 3 3 3 3 3 3 3 3 3 3 3 3 3 3 3 3 3 3 3 3 3 3 3 3 3 3 3 3 3 3 3 3 3 3 3 3 3 3 3 3 3 3 3 3 3 3 3 3 3 3 3 3 3 3 3 3 3 3 3 3 3 3 
</DataArray>
<DataArray Name="FiberAngle" format="ascii" type="Float64">
-45 -45 -45 -45 -45 -45 -45 -45 -45 -45 -45 -45 -45 -45 -45 -45 -45 -45 -45 -45 -45 -45 -45 -45 -45 -45 -45 -45 -45 -45 -45 -45 0 0 0 0 0 0 0 0 0 0 0 0 0 0 0 0 0 0 0 0 0 0 0 0 0 0 0 0 0 0 0 0 0 0 0 0 0 0 0 0 0 0 0 0 0 0 0 0 0 0 0 0 0 0 0 0 0 0 0 0 0 0 0 0 0 0 0 0 0 0 0 0 0 0 0 0 0 0 0 0 -45 -45 -45 -45 -45 -45 -45 -45 -45 -45 -45 -45 -45 -45 -45 -45 -45 -45 -45 -45 -45 -45 -45 -45 -45 -45 -45 -45 -45 -45 -45 -45 -45 -45 -45 -45 -45 -45 -45 -45 -45 -45 -45 -45 -45 -45 -45 -45 -45 -45 -45 -45 -45 -45 -45 -45 -45 -45 -45 -45 -45 -45 -45 -45 -45 -45 -45 -45 -45 -45 -45 -45 -45 -45 -45 -45 -45 -45 -45 -45 -45 -45 -45 -45 -45 -45 -45 -45 -45 -45 -45 -45 -45 -45 -45 -45 -45 -45 -45 -45 -45 -45 -45 -45 -45 -45 -45 -45 -45 -45 -45 -45 -45 -45 -45 -45 -45 -45 -45 -45 
</DataArray>
<DataArray Name="Strain_11" format="ascii" type="Float64">
-0.0872154 -0.0887118 -0.127645 -0.181543 0.127645 0.181543 0.0872154 0.0887118 -0.0949814 -0.0593823 -0.0136757 -0.122467 0.0136757 0.122467 0.0949814 0.0593823 -0.0651323 -0.000447155 0.0292985 -0.136084 -0.0292985 0.136084 0.0651323 0.000447155 0.0635125 0.0807534 0.333686 0.180509 -0.333686 -0.180509 -0.0635125 -0.0807534 -0.0406601 -0.0332566 -0.0257952 -0.0154552 -0.00519859 0.00519859 0.0154552 0.0257952 0.0332566 0.0406601 -0.032547 -0.0353644 -0.026086 -0.0158709 -0.00529104 0.00529104 0.0158709 0.026086 0.0353644 0.032547 -0.0213502 -0.0147096 -0.0126731 -0.0074929 -0.00255203 0.00255203 0.0074929 0.0126731 0.0147096 0.0213502 -0.0160559 -0.0194696 -0.0130197 -0.00799769 -0.00263369 0.00263369 0.00799769 0.0130197 0.0194696 0.0160559 0.0126652 0.00497559 0.000929666 0.000530032 0.000127706 -0.000127706 -0.000530032 -0.000929666 -0.00497559 -0.0126652 0.0043971 -0.00149188 0.000234579 -1.31581e-05 3.69814e-05 -3.69814e-05 1.31581e-05 -0.000234579 0.00149188 -0.0043971 0.02474 0.0351603 0.0266214 0.0163229 0.00544102 -0.00544102 -0.0163229 -0.0266214 -0.0351603 -0.02474 0.0183172 0.0303485 0.0259767 0.0158338 0.00534487 -0.00534487 -0.0158338 -0.0259767 -0.0303485 -0.0183172 0.207343 0.170224 0.152837 0.132605 0.111967 0.0912582 0.0705673 0.0501487 0.0322674 -0.00830169 0.180922 0.176824 0.152745 0.131623 0.110833 0.0900907 0.0692838 0.048175 0.0244016 0.023057 -0.180922 -0.176824 -0.152745 -0.131623 -0.110833 -0.0900907 -0.0692838 -0.048175 -0.0244016 -0.023057 -0.207343 -0.170224 -0.152837 -0.132605 -0.111967 -0.0912582 -0.0705673 -0.0501487 -0.0322674 0.00830169 0.17001 0.127187 0.109144 0.088423 0.0673916 0.0463096 0.0252317 0.00438157 -0.0136554 -0.06714 0.132867 0.133361 0.109124 0.0877402 0.0666031 0.0454941 0.0243342 0.00291465 -0.0214506 -0.0107232 -0.132867 -0.133361 -0.109124 -0.0877402 -0.0666031 -0.0454941 -0.0243342 -0.00291465 0.0214506 0.0107232 -0.17001 -0.127187 -0.109144 -0.088423 -0.0673916 -0.0463096 -0.0252317 -0.00438157 0.0136554 0.06714 0.17151 0.114442 0.055238 -0.00355684 -0.0624074 -0.121372 -0.180112 -0.239805 -0.296351 -0.364678 0.172025 0.111368 0.0526149 -0.00652016 -0.0656877 -0.124807 -0.184237 -0.242759 -0.304645 -0.354408 -0.172025 -0.111368 -0.0526149 0.00652016 0.0656877 0.124807 0.184237 0.242759 0.304645 0.354408 -0.17151 -0.114442 -0.055238 0.00355684 0.0624074 0.121372 0.180112 0.239805 0.296351 0.364678 
</DataArray>
<DataArray Name="Strain_22" format="ascii" type="Float64">
-0.0360924 -0.0307209 0.00204046 -0.0226758 -0.00204046 0.0226758 0.0360924 0.0307209 0.00747946 -0.0204016 0.0156557 -0.0297495 -0.0156557 0.0297495 -0.00747946 0.0204016 0.0180719 -0.0063681 0.0162775 -0.0451931 -0.0162775 0.0451931 -0.0180719 0.0063681 0.0399992 0.041565 0.046086 -0.00749017 -0.046086 0.00749017 -0.0399992 -0.041565 -0.0439111 -0.0473346 -0.0330568 -0.0199199 -0.00664073 0.00664073 0.0199199 0.0330568 0.0473346 0.0439111 -0.0727602 -0.044269 -0.0333003 -0.0198207 -0.00663551 0.00663551 0.0198207 0.0333003 0.044269 0.0727602 -0.00119652 -0.0252001 -0.0159895 -0.00980432 -0.00325137 0.00325137 0.00980432 0.0159895 0.0252001 0.00119652 -0.0562758 -0.0196897 -0.0165232 -0.00966765 -0.00325502 0.00325502 0.00966765 0.0165232 0.0196897 0.0562758 0.0277609 -0.00277306 0.000232091 -0.000144339 -1.48075e-05 1.48075e-05 0.000144339 -0.000232091 0.00277306 -0.0277609 -0.0256978 0.00268947 -0.000379887 1.36125e-05 -2.72903e-05 2.72903e-05 -1.36125e-05 0.000379887 -0.00268947 0.0256978 0.0736509 0.0432211 0.0330674 0.0196196 0.00657755 -0.00657755 -0.0196196 -0.0330674 -0.0432211 -0.0736509 0.0370169 0.0471779 0.0326348 0.0197571 0.00656988 -0.00656988 -0.0197571 -0.0326348 -0.0471779 -0.0370169 0.0290135 0.0322031 0.0309615 0.0309076 0.0306932 0.0305201 0.0302977 0.0301314 0.0288155 0.0313111 0.0337544 0.0285339 0.0290993 0.0290042 0.0290042 0.0289848 0.0289863 0.0289752 0.0299641 0.0284929 -0.0337544 -0.0285339 -0.0290993 -0.0290042 -0.0290042 -0.0289848 -0.0289863 -0.0289752 -0.0299641 -0.0284929 -0.0290135 -0.0322031 -0.0309615 -0.0309076 -0.0306932 -0.0305201 -0.0302977 -0.0301314 -0.0288155 -0.0313111 0.00775976 0.00998414 0.00820715 0.00802874 0.0077555 0.00754546 0.00727395 0.00710992 0.00544284 0.010558 0.0108141 0.00730444 0.00816698 0.00806013 0.00803325 0.00797832 0.00795604 0.00784742 0.00890876 0.00329227 -0.0108141 -0.00730444 -0.00816698 -0.00806013 -0.00803325 -0.00797832 -0.00795604 -0.00784742 -0.00890876 -0.00329227 -0.00775976 -0.00998414 -0.00820715 -0.00802874 -0.0077555 -0.00754546 -0.00727395 -0.00710992 -0.00544284 -0.010558 -0.021017 -0.0247375 -0.0237112 -0.0222108 -0.0206471 -0.0190429 -0.0175183 -0.0155658 -0.0144773 -0.00952167 -0.032622 -0.0231447 -0.0204168 -0.0181607 -0.0160242 -0.0139177 -0.0117577 -0.00995886 -0.00745694 -0.00730714 0.032622 0.0231447 0.0204168 0.0181607 0.0160242 0.0139177 0.0117577 0.00995886 0.00745694 0.00730714 0.021017 0.0247375 0.0237112 0.0222108 0.0206471 0.0190429 0.0175183 0.0155658 0.0144773 0.00952167 
</DataArray>
<DataArray Name="Strain_12" format="ascii" type="Float64">