<?xml version="1.0"?>
<VTKFile byte_order="LittleEndian" type="UnstructuredGrid" version="0.1">
<UnstructuredGrid>
<Piece NumberOfCells="232" NumberOfPoints="918">
<PointData>
<DataArray Name="Warping_X" format="ascii" type="Float64">
0.0452775 0.041793 0.0437188 0.0418094 0.0421749 0.0450857 0.0435394 0.0457721 0.0440166 0.0450857 0.0418094 0.0435394 0.041793 0.0421749 0.0452775 0.0437188 0.0457721 0.0440166 -0.0175513 -0.0195273 -0.0185358 -0.0195221 -0.0194262 -0.0177322 -0.0186443 -0.0177822 -0.0186093 -0.0177322 -0.0195221 -0.0186443 -0.0195273 -0.0194262 -0.0175513 -0.0185358 -0.0177822 -0.0186093 -0.0381441 -0.0380594 -0.0380918 -0.0380106 -0.038068 -0.0381529 -0.0381035 -0.0381665 -0.0381233 -0.0381529 -0.0380106 -0.0381035 -0.0380594 -0.038068 -0.0381441 -0.0380918 -0.0381665 -0.0381233 0.0515025 0.0551759 0.0535282 0.0551492 0.0558065 0.0517137 0.0535276 0.0519111 0.0539437 0.0517137 0.0551492 0.0535276 0.0551759 0.0558065 0.0515025 0.0535282 0.0519111 0.0539437 0.0446338 0.0445516 0.0445355 0.0445339 0.0445334 0.0445339 0.0445355 0.0445516 0.0446338 0.0424992 0.0425922 0.0426141 0.0426159 0.0426165 0.0426159 0.0426141 0.0425922 0.0424992 0.0435704 0.043567 0.0435673 0.0435673 0.0435673 0.0435673 0.0435673 0.043567 0.0435704 -0.0180968 -0.0181539 -0.0181656 -0.0181666 -0.0181669 -0.0181666 -0.0181656 -0.0181539 -0.0180968 -0.0191609 -0.019107 -0.0190964 -0.0190953 -0.0190951 -0.0190953 -0.0190964 -0.019107 -0.0191609 -0.0186391 -0.0186383 -0.0186387 -0.0186386 -0.0186386 -0.0186386 -0.0186387 -0.0186383 -0.0186391 -0.0381335 -0.0381298 -0.0381294 -0.0381292 -0.0381293 -0.0381292 -0.0381294 -0.0381298 -0.0381335 -0.0380504 -0.0380568 -0.0380585 -0.0380586 -0.0380587 -0.0380586 -0.0380585 -0.0380568 -0.0380504 -0.0381024 -0.0381013 -0.0381017 -0.0381016 -0.0381016 -0.0381016 -0.0381017 -0.0381013 -0.0381024 0.0524315 0.0525283 0.0525513 0.0525532 0.0525538 0.0525532 0.0525513 0.0525283 0.0524315 0.0546796 0.0545941 0.0545766 0.054575 0.0545745 0.054575 0.0545766 0.0545941 0.0546796 0.053559 0.0535565 0.0535565 0.0535566 0.0535565 0.0535566 0.0535565 0.0535565 0.053559 0.0342236 0.0269032 0.019967 0.01341 0.00724674 0.00147614 -0.00390225 -0.00888032 -0.0134735 0.0341975 0.026896 0.0199462 0.0133914 0.00722743 0.00145642 -0.00392036 -0.00890772 -0.0134788 0.0342661 0.026888 0.0199321 0.0133742 0.00721021 0.00143923 -0.00393914 -0.00892654 -0.0135305 0.0341975 0.026896 0.0199462 0.0133914 0.00722743 0.00145642 -0.00392036 -0.00890772 -0.0134788 0.0342236 0.0269032 0.019967 0.01341 0.00724674 0.00147614 -0.00390225 -0.00888032 -0.0134735 0.0342661 0.026888 0.0199321 0.0133742 0.00721021 0.00143923 -0.00393914 -0.00892654 -0.0135305 -0.0231896 -0.0264813 -0.0293656 -0.0318468 -0.0339184 -0.035581 -0.0368346 -0.0376792 -0.0381173 -0.0231996 -0.026486 -0.0293775 -0.0318577 -0.0339296 -0.0355922 -0.0368457 -0.03769 -0.0381242 -0.0231923 -0.0265049 -0.0293977 -0.0318793 -0.0339512 -0.0356138 -0.0368672 -0.0377112 -0.0381452 -0.0231996 -0.026486 -0.0293775 -0.0318577 -0.0339296 -0.0355922 -0.0368457 -0.03769 -0.0381242 -0.0231896 -0.0264813 -0.0293656 -0.0318468 -0.0339184 -0.035581 -0.0368346 -0.0376792 -0.0381173 -0.0231923 -0.0265049 -0.0293977 -0.0318793 -0.0339512 -0.0356138 -0.0368672 -0.0377112 -0.0381452 -0.0367018 -0.0334725 -0.0286465 -0.0221485 -0.013999 -0.00419299 0.00726787 0.0203809 0.0351198 -0.0363092 -0.0331737 -0.0283227 -0.0218317 -0.0136804 -0.00387466 0.00758611 0.0206974 0.0354596 -0.0365398 -0.0333572 -0.0285186 -0.0220241 -0.0138736 -0.00406743 0.00739508 0.0205171 0.0353196 -0.0363092 -0.0331737 -0.0283227 -0.0218317 -0.0136804 -0.00387466 0.00758611 0.0206974 0.0354596 -0.0367018 -0.0334725 -0.0286465 -0.0221485 -0.013999 -0.00419299 0.00726787 0.0203809 0.0351198 -0.0365398 -0.0333572 -0.0285186 -0.0220241 -0.0138736 -0.00406743 0.00739508 0.0205171 0.0353196 0.0445332 0.0456491 0.0427303 0.0420078 0.0381851 0.0437871 0.0419519 0.0426617 0.0448974 0.0377854 0.0430944 0.0380851 0.0443285 0.0457197 0.0425594 0.0437544 0.0437387 0.0448616 0.0443285 0.0457197 0.0425594 0.0426617 0.0419519 0.0448974 0.0377854 0.0437544 0.0437387 0.0420078 0.0427303 0.0381851 0.0430944 0.0380851 0.0445332 0.0456491 0.0437871 0.0448616 -0.0180158 -0.01768 -0.015349 -0.01904 -0.0194656 -0.0211877 -0.0185781 -0.0194942 -0.0190943 -0.018013 -0.0216376 -0.0190148 -0.0213873 -0.0181869 -0.0177357 -0.0191176 -0.01589 -0.0186245 -0.0185629 -0.0182044 -0.0156696 -0.0181869 -0.0177357 -0.0191176 -0.01589 -0.0190943 -0.0194942 -0.018013 -0.0216376 -0.0186245 -0.0185629 -0.0194656 -0.01904 -0.0211877 -0.0190148 -0.0213873 -0.0180158 -0.01768 -0.015349 -0.0185781 -0.0182044 -0.0156696 -0.0381102 -0.038157 -0.0379492 -0.0380662 -0.038064 -0.0371983 -0.0381144 -0.0380384 -0.0380612 -0.038098 -0.0377706 -0.0380989 -0.0375005 -0.038134 -0.0381606 -0.0380129 -0.0384388 -0.0381092 -0.0380519 -0.0381465 -0.0382037 -0.038134 -0.0381606 -0.0380129 -0.0384388 -0.0380612 -0.0380384 -0.038098 -0.0377706 -0.0381092 -0.0380519 -0.038064 -0.0380662 -0.0371983 -0.0380989 -0.0375005 -0.0381102 -0.038157 -0.0379492 -0.0381144 -0.0381465 -0.0382037 0.0524566 0.0517243 0.0435247 0.0543859 0.0556186 0.0536313 0.0557814 0.054354 0.0525253 0.0548426 0.0526021 0.0517934 0.0549981 0.0429847 0.0536952 0.0537696 0.0529434 0.0433078 0.0526021 0.0517934 0.0549981 0.0429847 0.054354 0.0557814 0.0525253 0.0536952 0.0537696 0.0556186 0.0543859 0.0548426 0.0524566 0.0517243 0.0435247 0.0536313 0.0529434 0.0433078 0.0423411 0.0440935 0.0423578 0.0440586 0.0423513 0.044049 0.042352 0.0440486 0.042352 0.0440483 0.0423513 0.0440486 0.0423578 0.044049 0.0423411 0.0440586 0.0440935 0.0447306 0.0430393 0.0447857 0.0430759 0.0447802 0.0430891 0.0447826 0.0430894 0.0447826 0.0430899 0.0447802 0.0430894 0.0447857 0.0430891 0.0447306 0.0430759 0.0430393 0.0435476 0.0435798 0.043574 0.0435754 0.0435754 0.043574 0.0435798 0.0435476 -0.0192228 -0.0183719 -0.0192247 -0.0183978 -0.0192271 -0.0184043 -0.0192272 -0.0184046 -0.0192272 -0.0184048 -0.0192271 -0.0184046 -0.0192247 -0.0184043 -0.0192228 -0.0183978 -0.0183719 -0.0180709 -0.0188979 -0.0180499 -0.0188757 -0.0180512 -0.0188693 -0.0180504 -0.0188691 -0.0180504 -0.0188688 -0.0180512 -0.0188691 -0.0180499 -0.0188693 -0.0180709 -0.0188757 -0.0188979 -0.0186386 -0.0186293 -0.018631 -0.0186307 -0.0186307 -0.018631 -0.0186293 -0.0186386 -0.0380621 -0.0381186 -0.0380563 -0.038118 -0.0380572 -0.0381175 -0.038057 -0.0381175 -0.038057 -0.0381175 -0.0380572 -0.0381175 -0.0380563 -0.0381175 -0.0380621 -0.038118 -0.0381186 -0.0381496 -0.0380778 -0.0381457 -0.0380813 -0.0381466 -0.0380821 -0.0381465 -0.0380821 -0.0381465 -0.0380822 -0.0381466 -0.0380821 -0.0381457 -0.0380821 -0.0381496 -0.0380813 -0.0380778 -0.0380979 -0.038093 -0.0380938 -0.0380937 -0.0380937 -0.0380938 -0.038093 -0.0380979 0.0547767 0.0530018 0.0548424 0.0530382 0.0548346 0.0530524 0.0548376 0.0530526 0.0548376 0.0530532 0.0548346 0.0530526 0.0548424 0.0530524 0.0547767 0.0530382 0.0530018 0.0522579 0.0541108 0.0522829 0.0540745 0.0522744 0.0540642 0.0522756 0.0540638 0.0522756 0.0540634 0.0522744 0.0540638 0.0522829 0.0540642 0.0522579 0.0540745 0.0541108 0.0535295 0.0535706 0.0535628 0.0535647 0.0535647 0.0535628 0.0535706 0.0535295 0.0307367 0.0342345 0.0236036 0.0268969 0.0168543 0.0199484 0.0104941 0.0133917 0.00452699 0.00722794 -0.00104744 0.00145707 -0.00622662 -0.00392078 -0.0110106 -0.00890528 -0.0134958 0.0302835 0.034237 0.0231449 0.0268898 0.0163911 0.019939 0.010031 0.0133822 0.00406345 0.0072183 -0.00151081 0.00144739 -0.00669329 -0.00393065 -0.0114787 -0.00891622 -0.0135108 0.0305162 0.0233639 0.0166095 0.010249 0.00428159 -0.00129291 -0.00647482 -0.0112653 0.0302835 0.034237 0.0231449 0.0268898 0.0163911 0.019939 0.010031 0.0133822 0.00406345 0.0072183 -0.00151081 0.00144739 -0.00669329 -0.00393065 -0.0114787 -0.00891622 -0.0135108 0.0307367 0.0342345 0.0236036 0.0268969 0.0168543 0.0199484 0.0104941 0.0133917 0.00452699 0.00722794 -0.00104744 0.00145707 -0.00622662 -0.00392078 -0.0110106 -0.00890528 -0.0134958 0.0305162 0.0233639 0.0166095 0.010249 0.00428159 -0.00129291 -0.00647482 -0.0112653 -0.0246517 -0.0231962 -0.0277398 -0.0264928 -0.0304235 -0.0293825 -0.0326999 -0.0318635 -0.034567 -0.0339353 -0.0360251 -0.0355979 -0.0370741 -0.0368514 -0.0377153 -0.0376958 -0.0381315 -0.0251369 -0.0231934 -0.0282308 -0.0264968 -0.0309172 -0.0293879 -0.0331936 -0.031869 -0.0350608 -0.0339409 -0.0365188 -0.0356035 -0.0375677 -0.036857 -0.0382069 -0.0377011 -0.0381356 -0.0249006 -0.0279977 -0.0306838 -0.0329604 -0.0348276 -0.0362856 -0.0373344 -0.037974 -0.0251369 -0.0231934 -0.0282308 -0.0264968 -0.0309172 -0.0293879 -0.0331936 -0.031869 -0.0350608 -0.0339409 -0.0365188 -0.0356035 -0.0375677 -0.036857 -0.0382069 -0.0377011 -0.0381356 -0.0246517 -0.0231962 -0.0277398 -0.0264928 -0.0304235 -0.0293825 -0.0326999 -0.0318635 -0.034567 -0.0339353 -0.0360251 -0.0355979 -0.0370741 -0.0368514 -0.0377153 -0.0376958 -0.0381315 -0.0249006 -0.0279977 -0.0306838 -0.0329604 -0.0348276 -0.0362856 -0.0373344 -0.037974 -0.0348413 -0.0366201 -0.0308329 -0.0334159 -0.0251661 -0.0285828 -0.0178437 -0.0220868 -0.00886553 -0.0139368 0.00176805 -0.0041306 0.0140554 0.0073307 0.0279903 0.0204497 0.0352138 -0.0354209 -0.0364265 -0.0314091 -0.0332653 -0.0257429 -0.0284214 -0.0184203 -0.0219283 -0.00944215 -0.0137775 0.00119156 -0.00397154 0.0134798 0.00749031 0.0274182 0.0206059 0.035392 -0.0351467 -0.0311364 -0.0254699 -0.0181474 -0.00916912 0.00146481 0.0137544 0.027701 -0.0354209 -0.0364265 -0.0314091 -0.0332653 -0.0257429 -0.0284214 -0.0184203 -0.0219283 -0.00944215 -0.0137775 0.00119156 -0.00397154 0.0134798 0.00749031 0.0274182 0.0206059 0.035392 -0.0348413 -0.0366201 -0.0308329 -0.0334159 -0.0251661 -0.0285828 -0.0178437 -0.0220868 -0.00886553 -0.0139368 0.00176805 -0.0041306 0.0140554 0.0073307 0.0279903 0.0204497 0.0352138 -0.0351467 -0.0311364 -0.0254699 -0.0181474 -0.00916912 0.00146481 0.0137544 0.027701 
</DataArray>
<DataArray Name="Warping_Y" format="ascii" type="Float64">
0.0273661 0.0280293 0.0274157 0.027204 0.0275602 0.0278296 0.028401 0.0276705 0.0276408 -0.0278296 -0.027204 -0.028401 -0.0280293 -0.0275602 -0.0273661 -0.0274157 -0.0276705 -0.0276408 0.0146732 0.0144211 0.0142778 0.0140097 0.0141814 0.0142296 0.0145886 0.0144707 0.0143195 -0.0142296 -0.0140097 -0.0145886 -0.0144211 -0.0141814 -0.0146732 -0.0142778 -0.0144707 -0.0143195 -6.04981e-06 -0.000192333 -8.93556e-05 -0.000145451 -0.000190277 -1.6555e-05 -0.000139458 2.13199e-05 -9.72585e-05 1.6555e-05 0.000145451 0.000139458 0.000192333 0.000190277 6.04981e-06 8.93556e-05 -2.13199e-05 9.72585e-05 -0.0310848 -0.029965 -0.0301176 -0.0303582 -0.0302513 -0.0295986 -0.0309449 -0.030292 -0.0302678 0.0295986 0.0303582 0.0309449 0.029965 0.0302513 0.0310848 0.0301176 0.030292 0.0302678 0.0225756 0.0169548 0.0113129 0.00565497 -5.04784e-15 -0.00565497 -0.0113129 -0.0169548 -0.0225756 0.0226546 0.0169391 0.0113162 0.00565412 -5.47686e-15 -0.00565412 -0.0113162 -0.0169391 -0.0226546 0.022695 0.0169524 0.0113135 0.00565432 -5.25682e-15 -0.00565432 -0.0113135 -0.0169524 -0.022695 0.0116048 0.00870864 0.00581232 0.002905 -7.47093e-15 -0.002905 -0.00581232 -0.00870864 -0.0116048 0.0116309 0.00870493 0.00581307 0.00290484 -7.65354e-15 -0.00290484 -0.00581307 -0.00870493 -0.0116309 0.0116552 0.00870815 0.00581182 0.00290475 -7.56306e-15 -0.00290475 -0.00581182 -0.00870815 -0.0116552 -0.000105844 -7.3548e-05 -5.05498e-05 -2.50662e-05 -2.88448e-15 2.50662e-05 5.05498e-05 7.3548e-05 0.000105844 -9.13578e-05 -7.51914e-05 -5.02529e-05 -2.51177e-05 -3.26154e-15 2.51177e-05 5.02529e-05 7.51914e-05 9.13578e-05 -0.000104692 -7.48817e-05 -5.03799e-05 -2.50817e-05 -3.06884e-15 2.50817e-05 5.03799e-05 7.48817e-05 0.000104692 -0.0246897 -0.0184531 -0.0123296 -0.0061601 -1.3255e-14 0.0061601 0.0123296 0.0184531 0.0246897 -0.0245893 -0.0184733 -0.0123251 -0.00616122 -1.2962e-14 0.00616122 0.0123251 0.0184733 0.0245893 -0.0247295 -0.01847 -0.0123264 -0.00616044 -1.3101e-14 0.00616044 0.0123264 0.01847 0.0247295 -0.0270373 -0.0257276 -0.02438 -0.0230281 -0.0216759 -0.0203235 -0.018971 -0.0176143 -0.0162349 -0.0257034 -0.0244022 -0.0231233 -0.0218444 -0.0205652 -0.0192858 -0.0180063 -0.0167257 -0.0154524 -0.0263618 -0.0250628 -0.0237514 -0.0224361 -0.0211206 -0.0198046 -0.0184887 -0.0171701 -0.0158477 0.0257034 0.0244022 0.0231233 0.0218444 0.0205652 0.0192858 0.0180063 0.0167257 0.0154524 0.0270373 0.0257276 0.02438 0.0230281 0.0216759 0.0203235 0.018971 0.0176143 0.0162349 0.0263618 0.0250628 0.0237514 0.0224361 0.0211206 0.0198046 0.0184887 0.0171701 0.0158477 -0.0131444 -0.0117052 -0.0102431 -0.00877812 -0.00731281 -0.00584743 -0.00438217 -0.00291661 -0.00145366 -0.0125332 -0.011135 -0.00974508 -0.00835535 -0.00696549 -0.00557553 -0.00418564 -0.00279495 -0.00140273 -0.0128333 -0.0114188 -0.0099939 -0.00856668 -0.00713915 -0.00571151 -0.00428406 -0.0028567 -0.00143371 0.0125332 0.011135 0.00974508 0.00835535 0.00696549 0.00557553 0.00418564 0.00279495 0.00140273 0.0131444 0.0117052 0.0102431 0.00877812 0.00731281 0.00584743 0.00438217 0.00291661 0.00145366 0.0128333 0.0114188 0.0099939 0.00856668 0.00713915 0.00571151 0.00428406 0.0028567 0.00143371 0.00318287 0.00638412 0.00951445 0.0126611 0.0158027 0.0189458 0.0220876 0.0252222 0.0283383 0.00292012 0.00592656 0.00886543 0.0118212 0.0147719 0.0177242 0.0206761 0.0236274 0.0266124 0.00305681 0.00615572 0.00919014 0.0122411 0.0152873 0.0183349 0.0213816 0.0244233 0.0274664 -0.00292012 -0.00592656 -0.00886543 -0.0118212 -0.0147719 -0.0177242 -0.0206761 -0.0236274 -0.0266124 -0.00318287 -0.00638412 -0.00951445 -0.0126611 -0.0158027 -0.0189458 -0.0220876 -0.0252222 -0.0283383 -0.00305681 -0.00615572 -0.00919014 -0.0122411 -0.0152873 -0.0183349 -0.0213816 -0.0244233 -0.0274664 0.0269061 0.0274884 0.0272105 0.0277809 0.0259743 0.0275514 0.0273999 0.0281021 0.0253026 0.0279851 0.0276316 0.0269739 0.0283844 0.0278524 0.025392 0.0279488 0.0254308 0.0276619 -0.0283844 -0.0278524 -0.025392 -0.0281021 -0.0273999 -0.0253026 -0.0279851 -0.0279488 -0.0254308 -0.0277809 -0.0272105 -0.0259743 -0.0276316 -0.0269739 -0.0269061 -0.0274884 -0.0275514 -0.0276619 0.0142188 0.0145706 0.0145654 0.0140981 0.0142944 0.0130505 0.0143216 0.0141012 0.0144432 0.0130066 0.0139954 0.0142658 0.0135193 0.0145553 0.014361 0.0130522 0.0156422 0.0144206 0.0130656 0.0144009 0.0151108 -0.0145553 -0.014361 -0.0130522 -0.0156422 -0.0144432 -0.0141012 -0.0130066 -0.0139954 -0.0144206 -0.0130656 -0.0142944 -0.0140981 -0.0130505 -0.0142658 -0.0135193 -0.0142188 -0.0145706 -0.0145654 -0.0143216 -0.0144009 -0.0151108 -3.42466e-05 1.15453e-05 0.000711818 -0.000117577 -0.000192598 -0.00131029 -9.33013e-05 -0.000169718 -0.000157183 -0.000121792 -0.00149743 -0.000141203 -0.00140999 -8.79129e-05 5.00885e-06 -9.19551e-05 0.000714848 -0.000113114 -0.000113529 -4.54305e-05 0.000718175 8.79129e-05 -5.00885e-06 9.19551e-05 -0.000714848 0.000157183 0.000169718 0.000121792 0.00149743 0.000113114 0.000113529 0.000192598 0.000117577 0.00131029 0.000141203 0.00140999 3.42466e-05 -1.15453e-05 -0.000711818 9.33013e-05 4.54305e-05 -0.000718175 -0.0299911 -0.0306768 -0.0279452 -0.0295051 -0.0300793 -0.0302244 -0.0304111 -0.0309416 -0.0276677 -0.0302609 -0.030611 -0.0299566 -0.0275538 -0.0300424 -0.0305323 -0.0277061 -0.030307 -0.028986 0.030611 0.0299566 0.0275538 0.0300424 0.0309416 0.0304111 0.0276677 0.0305323 0.0277061 0.0300793 0.0295051 0.0302609 0.0299911 0.0306768 0.0279452 0.0302244 0.030307 0.028986 0.019805 0.0225734 0.0141364 0.0169704 0.00848435 0.011309 0.00282743 0.00565569 -0.00282743 -5.1558e-15 -0.00848435 -0.00565569 -0.0141364 -0.011309 -0.019805 -0.0169704 -0.0225734 0.0198215 0.0225979 0.0141345 0.0169678 0.00848497 0.0113092 0.00282726 0.00565566 -0.00282726 -5.36408e-15 -0.00848497 -0.00565566 -0.0141345 -0.0113092 -0.0198215 -0.0169678 -0.0225979 0.0198166 0.0141337 0.00848428 0.00282724 -0.00282724 -0.00848428 -0.0141337 -0.0198166 0.0101778 0.011597 0.00726257 0.00871768 0.00435876 0.00580977 0.00145252 0.00290546 -0.00145252 -7.51755e-15 -0.00435876 -0.00290546 -0.00726257 -0.00580977 -0.0101778 -0.00871768 -0.011597 0.0101825 0.0116069 0.0072617 0.00871695 0.00435891 0.0058098 0.00145247 0.00290547 -0.00145247 -7.60828e-15 -0.00435891 -0.00290547 -0.0072617 -0.0058098 -0.0101825 -0.00871695 -0.0116069 0.0101798 0.0072608 0.00435855 0.00145243 -0.00145243 -0.00435855 -0.0072608 -0.0101798 -8.99062e-05 -0.000101696 -6.24229e-05 -7.52842e-05 -3.78028e-05 -5.01822e-05 -1.25367e-05 -2.51453e-05 1.25367e-05 -2.98709e-15 3.78028e-05 2.51453e-05 6.24229e-05 5.01822e-05 8.99062e-05 7.52842e-05 0.000101696 -8.73422e-05 -9.56737e-05 -6.29576e-05 -7.56561e-05 -3.77253e-05 -5.01769e-05 -1.25642e-05 -2.51361e-05 1.25642e-05 -3.15587e-15 3.77253e-05 2.51361e-05 6.29576e-05 5.01769e-05 8.73422e-05 7.56561e-05 9.56737e-05 -8.90935e-05 -6.26321e-05 -3.77465e-05 -1.25447e-05 1.25447e-05 3.77465e-05 6.26321e-05 8.90935e-05 -0.0215964 -0.0246215 -0.0153991 -0.0184868 -0.00924455 -0.0123215 -0.0030803 -0.00616192 0.0030803 -1.31771e-14 0.00924455 0.00616192 0.0153991 0.0123215 0.0215964 0.0184868 0.0246215 -0.021576 -0.024593 -0.0154019 -0.0184896 -0.00924372 -0.0123213 -0.00308054 -0.00616195 0.00308054 -1.30339e-14 0.00924372 0.00616195 0.0154019 0.0123213 0.021576 0.0184896 0.024593 -0.0215911 -0.0153988 -0.00924376 -0.0030803 0.0030803 0.00924376 0.0153988 0.0215911 -0.0248268 -0.0267011 -0.0235631 -0.0253944 -0.0223019 -0.0240658 -0.0210329 -0.0227321 -0.0197645 -0.0213982 -0.0184966 -0.0200641 -0.017223 -0.0187298 -0.0159553 -0.0173923 -0.0160406 -0.0266193 -0.0260293 -0.0252452 -0.0247337 -0.0238873 -0.0234371 -0.0225235 -0.0221403 -0.0211604 -0.0208429 -0.0197978 -0.0195453 -0.0184305 -0.0182473 -0.0170753 -0.0169488 -0.0156472 -0.0257214 -0.0244041 -0.0230945 -0.0217782 -0.0204625 -0.0191472 -0.017827 -0.0165155 0.0266193 0.0260293 0.0252452 0.0247337 0.0238873 0.0234371 0.0225235 0.0221403 0.0211604 0.0208429 0.0197978 0.0195453 0.0184305 0.0182473 0.0170753 0.0169488 0.0156472 0.0248268 0.0267011 0.0235631 0.0253944 0.0223019 0.0240658 0.0210329 0.0227321 0.0197645 0.0213982 0.0184966 0.0200641 0.017223 0.0187298 0.0159553 0.0173923 0.0160406 0.0257214 0.0244041 0.0230945 0.0217782 0.0204625 0.0191472 0.017827 0.0165155 -0.011734 -0.0129899 -0.0103599 -0.0115615 -0.00898476 -0.0101186 -0.00760535 -0.00867238 -0.00622636 -0.00722598 -0.00484723 -0.00577949 -0.00346812 -0.00433304 -0.00209107 -0.00288694 -0.00144272 -0.0125282 -0.0126821 -0.0110498 -0.0112773 -0.00957669 -0.00986939 -0.00810026 -0.00846105 -0.00662434 -0.00705231 -0.00514826 -0.00564354 -0.00367208 -0.00423479 -0.00219716 -0.00282602 -0.0014175 -0.0121302 -0.0107048 -0.00928068 -0.00785281 -0.00642535 -0.00499776 -0.00357023 -0.00214485 0.0125282 0.0126821 0.0110498 0.0112773 0.00957669 0.00986939 0.00810026 0.00846105 0.00662434 0.00705231 0.00514826 0.00564354 0.00367208 0.00423479 0.00219716 0.00282602 0.0014175 0.011734 0.0129899 0.0103599 0.0115615 0.00898476 0.0101186 0.00760535 0.00867238 0.00622636 0.00722598 0.00484723 0.00577949 0.00346812 0.00433304 0.00209107 0.00288694 0.00144272 0.0121302 0.0107048 0.00928068 0.00785281 0.00642535 0.00499776 0.00357023 0.00214485 0.0044687 0.00311939 0.00736307 0.00627007 0.0103241 0.00935225 0.0132659 0.0124511 0.0162127 0.015545 0.0191583 0.0186403 0.0221022 0.0217348 0.0250273 0.0248219 0.0279047 0.0048552 0.00298787 0.00795183 0.00604133 0.0111156 0.00902773 0.0142603 0.0120312 0.01741 0.0150296 0.0205587 0.0180296 0.0237071 0.0210287 0.0268459 0.0240261 0.027037 0.0046619 0.00765773 0.0107198 0.0137631 0.0168113 0.0198585 0.0229044 0.0259355 -0.0048552 -0.00298787 -0.00795183 -0.00604133 -0.0111156 -0.00902773 -0.0142603 -0.0120312 -0.01741 -0.0150296 -0.0205587 -0.0180296 -0.0237071 -0.0210287 -0.0268459 -0.0240261 -0.027037 -0.0044687 -0.00311939 -0.00736307 -0.00627007 -0.0103241 -0.00935225 -0.0132659 -0.0124511 -0.0162127 -0.015545 -0.0191583 -0.0186403 -0.0221022 -0.0217348 -0.0250273 -0.0248219 -0.0279047 -0.0046619 -0.00765773 -0.0107198 -0.0137631 -0.0168113 -0.0198585 -0.0229044 -0.0259355 
</DataArray>
<DataArray Name="Warping_Z" format="ascii" type="Float64">
0 0 0 0 0 0 0 0 0 0 0 0 0 0 0 0 0 0 0 0 0 0 0 0 0 0 0 0 0 0 0 0 0 0 0 0 0 0 0 0 0 0 0 0 0 0 0 0 0 0 0 0 0 0 0 0 0 0 0 0 0 0 0 0 0 0 0 0 0 0 0 0 0 0 0 0 0 0 0 0 0 0 0 0 0 0 0 0 0 0 0 0 0 0 0 0 0 0 0 0 0 0 0 0 0 0 0 0 0 0 0 0 0 0 0 0 0 0 0 0 0 0 0 0 0 0 0 0 0 0 0 0 0 0 0 0 0 0 0 0 0 0 0 0 0 0 0 0 0 0 0 0 0 0 0 0 0 0 0 0 0 0 0 0 0 0 0 0 0 0 0 0 0 0 0 0 0 0 0 0 0 0 0 0 0 0 0 0 0 0 0 0 0 0 0 0 0 0 0 0 0 0 0 0 0 0 0 0 0 0 0 0 0 0 0 0 0 0 0 0 0 0 0 0 0 0 0 0 0 0 0 0 0 0 0 0 0 0 0 0 0 0 0 0 0 0 0 0 0 0 0 0 0 0 0 0 0 0 0 0 0 0 0 0 0 0 0 0 0 0 0 0 0 0 0 0 0 0 0 0 0 0 0 0 0 0 0 0 0 0 0 0 0 0 0 0 0 0 0 0 0 0 0 0 0 0 0 0 0 0 0 0 0 0 0 0 0 0 0 0 0 0 0 0 0 0 0 0 0 0 0 0 0 0 0 0 0 0 0 0 0 0 0 0 0 0 0 0 0 0 0 0 0 0 0 0 0 0 0 0 0 0 0 0 0 0 0 0 0 0 0 0 0 0 0 0 0 0 0 0 0 0 0 0 0 0 0 0 0 0 0 0 0 0 0 0 0 0 0 0 0 0 0 0 0 0 0 0 0 0 0 0 0 0 0 0 0 0 0 0 0 0 0 0 0 0 0 0 0 0 0 0 0 0 0 0 0 0 0 0 0 0 0 0 0 0 0 0 0 0 0 0 0 0 0 0 0 0 0 0 0 0 0 0 0 0 0 0 0 0 0 0 0 0 0 0 0 0 0 0 0 0 0 0 0 0 0 0 0 0 0 0 0 0 0 0 0 0 0 0 0 0 0 0 0 0 0 0 0 0 0 0 0 0 0 0 0 0 0 0 0 0 0 0 0 0 0 0 0 0 0 0 0 0 0 0 0 0 0 0 0 0 0 0 0 0 0 0 0 0 0 0 0 0 0 0 0 0 0 0 0 0 0 0 0 0 0 0 0 0 0 0 0 0 0 0 0 0 0 0 0 0 0 0 0 0 0 0 0 0 0 0 0 0 0 0 0 0 0 0 0 0 0 0 0 0 0 0 0 0 0 0 0 0 0 0 0 0 0 0 0 0 0 0 0 0 0 0 0 0 0 0 0 0 0 0 0 0 0 0 0 0 0 0 0 0 0 0 0 0 0 0 0 0 0 0 0 0 0 0 0 0 0 0 0 0 0 0 0 0 0 0 0 0 0 0 0 0 0 0 0 0 0 0 0 0 0 0 0 0 0 0 0 0 0 0 0 0 0 0 0 0 0 0 0 0 0 0 0 0 0 0 0 0 0 0 0 0 0 0 0 0 0 0 0 0 0 0 0 0 0 0 0 0 0 0 0 0 0 0 0 0 0 0 0 0 0 0 0 0 0 0 0 0 0 0 0 0 0 0 0 0 0 0 0 0 0 0 0 0 0 0 0 0 0 0 0 0 0 0 0 0 0 0 0 0 0 0 0 0 0 0 0 0 0 0 0 0 0 0 0 0 0 0 0 0 0 0 0 0 0 0 0 0 0 0 0 0 0 0 0 0 0 0 0 0 0 0 0 0 0 0 0 0 0 0 0 0 0 0 0 0 0 0 0 0 0 0 0 0 0 0 0 0 0 0 0 0 0 0 0 0 0 0 0 0 0 0 0 0 0 0 0 0 0 0 0 0 0 0 0 0 0 0 0 0 0 0 0 0 0 0 0 0 0 0 0 0 0 0 0 0 0 0 0 0 0 0 0 0 0 0 0 0 0 0 0 0 
</DataArray>
</PointData>
<CellData>
<DataArray Name="MaterialId" format="ascii" type="Float64">
3 3 3 3 3 3 3 3 3 3 3 3 3 3 3 3 3 3 3 3 3 3 3 3 3 3 3 3 3 3 3 3 1 1 1 1 1 1 1 1 1 1 1 1 1 1 1 1 1 1 1 1 1 1 1 1 1 1 1 1 1 1 1 1 1 1 1 1 1 1 1 1 1 1 1 1 1 1 1 1 1 1 1 1 1 1 1 1 1 1 1 1 1 1 1 1 1 1 1 1 1 1 1 1 1 1 1 1 1 1 1 1 3 3 3 3 3 3 3 3 3 3 3 3 3 3 3 3 3 3 3 3 3 3 3 3 3 3 3 3 3 3 3 3 3 3 3 3 3 3 3 3 3 3 3 3 3 3 3 3 3 3 3 3 3 3 3 3 3 3 3 3 3 3 3 3 3 3 3 3 3 3 3 3 3 3 3 3 3 3 3 3 3 3 3 3 3 3 3 3 3 3 3 3 3 3 3 3 3 3 3 3 3 3 3 3 3 3 3 3 3 3 3 3 3 3 3 3 3 3 3 3 
</DataArray>
<DataArray Name="FiberAngle" format="ascii" type="Float64">
-45 -45 -45 -45 -45 -45 -45 -45 -45 -45 -45 -45 -45 -45 -45 -45 -45 -45 -45 -45 -45 -45 -45 -45 -45 -45 -45 -45 -45 -45 -45 -45 0 0 0 0 0 0 0 0 0 0 0 0 0 0 0 0 0 0 0 0 0 0 0 0 0 0 0 0 0 0 0 0 0 0 0 0 0 0 0 0 0 0 0 0 0 0 0 0 0 0 0 0 0 0 0 0 0 0 0 0 0 0 0 0 0 0 0 0 0 0 0 0 0 0 0 0 0 0 0 0 -45 -45 -45 -45 -45 -45 -45 -45 -45 -45 -45 -45 -45 -45 -45 -45 -45 -45 -45 -45 -45 -45 -45 -45 -45 -45 -45 -45 -45 -45 -45 -45 -45 -45 -45 -45 -45 -45 -45 -45 -45 -45 -45 -45 -45 -45 -45 -45 -45 -45 -45 -45 -45 -45 -45 -45 -45 -45 -45 -45 -45 -45 -45 -45 -45 -45 -45 -45 -45 -45 -45 -45 -45 -45 -45 -45 -45 -45 -45 -45 -45 -45 -45 -45 -45 -45 -45 -45 -45 -45 -45 -45 -45 -45 -45 -45 -45 -45 -45 -45 -45 -45 -45 -45 -45 -45 -45 -45 -45 -45 -45 -45 -45 -45 -45 -45 -45 -45 -45 -45 
</DataArray>
<DataArray Name="Strain_11" format="ascii" type="Float64">
-0.372393 -0.355858 -0.393045 -0.36051 -0.393045 -0.36051 -0.372393 -0.355858 -0.179629 -0.177496 -0.177763 -0.173929 -0.177763 -0.173929 -0.179629 -0.177496 0.0085319 0.0100771 0.0102825 0.0141598 0.0102825 0.0141598 0.0085319 0.0100771 0.381392 0.397476 0.380367 0.417246 0.380367 0.417246 0.381392 0.397476 -0.23175 -0.2366 -0.241173 -0.241241 -0.241437 -0.241437 -0.241241 -0.241173 -0.2366 -0.23175 -0.23586 -0.241309 -0.244409 -0.244533 -0.244674 -0.244674 -0.244533 -0.244409 -0.241309 -0.23586 -0.109979 -0.113532 -0.11589 -0.115968 -0.116063 -0.116063 -0.115968 -0.11589 -0.113532 -0.109979 -0.110931 -0.116842 -0.119079 -0.119211 -0.119301 -0.119301 -0.119211 -0.119079 -0.116842 -0.110931 0.00920904 0.0103427 0.0105338 0.0105621 0.0105704 0.0105704 0.0105621 0.0105338 0.0103427 0.00920904 0.00779758 0.0071517 0.00733217 0.00732356 0.00733193 0.00733193 0.00732356 0.00733217 0.0071517 0.00779758 0.248858 0.254331 0.257543 0.257672 0.257821 0.257821 0.257672 0.257543 0.254331 0.248858 0.245701 0.249427 0.254347 0.25437 0.254586 0.254586 0.25437 0.254347 0.249427 0.245701 -0.328294 -0.312644 -0.295779 -0.279015 -0.262294 -0.245571 -0.228853 -0.212152 -0.195513 -0.179785 -0.330779 -0.312236 -0.295682 -0.279007 -0.262289 -0.245569 -0.228845 -0.212106 -0.19534 -0.178051 -0.330779 -0.312236 -0.295682 -0.279007 -0.262289 -0.245569 -0.228845 -0.212106 -0.19534 -0.178051 -0.328294 -0.312644 -0.295779 -0.279015 -0.262294 -0.245571 -0.228853 -0.212152 -0.195513 -0.179785 -0.154132 -0.137642 -0.120463 -0.103381 -0.0863282 -0.0692754 -0.0522261 -0.0351716 -0.0181037 -0.00104202 -0.155442 -0.137358 -0.120403 -0.103376 -0.0863256 -0.069276 -0.0522264 -0.0351858 -0.0181529 -0.00106339 -0.155442 -0.137358 -0.120403 -0.103376 -0.0863256 -0.069276 -0.0522264 -0.0351858 -0.0181529 -0.00106339 -0.154132 -0.137642 -0.120463 -0.103381 -0.0863282 -0.0692754 -0.0522261 -0.0351716 -0.0181037 -0.00104202 0.0332351 0.0651785 0.0998748 0.133878 0.168057 0.202185 0.236327 0.270425 0.304868 0.338172 0.0297709 0.066066 0.0996518 0.133938 0.168041 0.202189 0.236316 0.270494 0.304415 0.340423 0.0297709 0.066066 0.0996518 0.133938 0.168041 0.202189 0.236316 0.270494 0.304415 0.340423 0.0332351 0.0651785 0.0998748 0.133878 0.168057 0.202185 0.236327 0.270425 0.304868 0.338172 
</DataArray>
<DataArray Name="Strain_22" format="ascii" type="Float64">
-0.15115 -0.0842136 -0.14451 -0.094105 -0.14451 -0.094105 -0.15115 -0.0842136 -0.036437 -0.0335356 -0.0308782 -0.0354876 -0.0308782 -0.0354876 -0.036437 -0.0335356 0.00223678 0.00472523 0.00849648 0.00319605 0.00849648 0.00319605 0.00223678 0.00472523 0.0631764 0.151176 0.0608089 0.136124 0.0608089 0.136124 0.0631764 0.151176 -0.239313 -0.244786 -0.246027 -0.245807 -0.245898 -0.245898 -0.245807 -0.246027 -0.244786 -0.239313 -0.252653 -0.243608 -0.246148 -0.245795 -0.2459 -0.2459 -0.245795 -0.246148 -0.243608 -0.252653 -0.123318 -0.12565 -0.126398 -0.126276 -0.126325 -0.126325 -0.126276 -0.126398 -0.12565 -0.123318 -0.128621 -0.12519 -0.126431 -0.126274 -0.126324 -0.126324 -0.126274 -0.126431 -0.12519 -0.128621 0.00267433 0.000870329 0.00110779 0.00108873 0.00109287 0.00109287 0.00108873 0.00110779 0.000870329 0.00267433 -0.000599249 0.00114832 0.00109139 0.00108856 0.00109327 0.00109327 0.00108856 0.00109139 0.00114832 -0.000599249 0.276025 0.265364 0.268189 0.267796 0.267911 0.267911 0.267796 0.268189 0.265364 0.276025 0.260412 0.26673 0.268055 0.267807 0.26791 0.26791 0.267807 0.268055 0.26673 0.260412 -0.202247 -0.179574 -0.168214 -0.158559 -0.14906 -0.139587 -0.13013 -0.120703 -0.111963 -0.106287 -0.199911 -0.178922 -0.168209 -0.158527 -0.149061 -0.13959 -0.130121 -0.120799 -0.112029 -0.109075 -0.199911 -0.178922 -0.168209 -0.158527 -0.149061 -0.13959 -0.130121 -0.120799 -0.112029 -0.109075 -0.202247 -0.179574 -0.168214 -0.158559 -0.14906 -0.139587 -0.13013 -0.120703 -0.111963 -0.106287 -0.0952201 -0.0795965 -0.0689938 -0.0592023 -0.0494914 -0.0397973 -0.0300986 -0.0203705 -0.0104614 0.000665528 -0.0937465 -0.0792384 -0.0689816 -0.0591842 -0.0494925 -0.0397977 -0.0301069 -0.0204226 -0.0107567 -0.00127146 -0.0937465 -0.0792384 -0.0689816 -0.0591842 -0.0494925 -0.0397977 -0.0301069 -0.0204226 -0.0107567 -0.00127146 -0.0952201 -0.0795965 -0.0689938 -0.0592023 -0.0494914 -0.0397973 -0.0300986 -0.0203705 -0.0104614 0.000665528 0.0174898 0.0386601 0.0588192 0.0791615 0.0994382 0.119734 0.140049 0.160534 0.18208 0.211272 0.0199391 0.038639 0.0589325 0.0791476 0.0994444 0.119731 0.140034 0.160447 0.181644 0.208163 0.0199391 0.038639 0.0589325 0.0791476 0.0994444 0.119731 0.140034 0.160447 0.181644 0.208163 0.0174898 0.0386601 0.0588192 0.0791615 0.0994382 0.119734 0.140049 0.160534 0.18208 0.211272 
</DataArray>
<DataArray Name="Strain_12" format="ascii" type="Float64">