<?xml version="1.0"?>
<VTKFile byte_order="LittleEndian" type="UnstructuredGrid" version="0.1">
<UnstructuredGrid>
<Piece NumberOfCells="232" NumberOfPoints="918">
<PointData>
<DataArray Name="Warping_X" format="ascii" type="Float64">
0.0290715 0.0284278 0.0287852 0.0284578 0.0285137 0.0290336 0.0287663 0.0291681 0.0288482 0.0290336 0.0284578 0.0287663 0.0284278 0.0285137 0.0290715 0.0287852 0.0291681 0.0288482 0.0130862 0.0122989 0.0126928 0.0123537 0.0123717 0.0130353 0.0126951 0.0130161 0.0126945 0.0130353 0.0123537 0.0126951 0.0122989 0.0123717 0.0130862 0.0126928 0.0130161 0.0126945 -0.00421797 -0.00503665 -0.00462973 -0.00497883 -0.00496626 -0.00426692 -0.00462122 -0.00428675 -0.00462015 -0.00426692 -0.00497883 -0.00462122 -0.00503665 -0.00496626 -0.00421797 -0.00462973 -0.00428675 -0.00462015 -0.0398482 -0.0405872 -0.040256 -0.0405563 -0.0407085 -0.0398816 -0.0402433 -0.0399308 -0.0403358 -0.0398816 -0.0405563 -0.0402433 -0.0405872 -0.0407085 -0.0398482 -0.040256 -0.0399308 -0.0403358 0.0289613 0.0289479 0.0289453 0.0289451 0.028945 0.0289451 0.0289453 0.0289479 0.0289613 0.0285768 0.0285926 0.0285965 0.0285968 0.0285969 0.0285968 0.0285965 0.0285926 0.0285768 0.0287718 0.0287709 0.0287711 0.028771 0.028771 0.028771 0.0287711 0.0287709 0.0287718 0.0129014 0.0128809 0.0128767 0.0128764 0.0128763 0.0128764 0.0128767 0.0128809 0.0129014 0.0124883 0.0125089 0.0125131 0.0125135 0.0125136 0.0125135 0.0125131 0.0125089 0.0124883 0.012695 0.012695 0.012695 0.012695 0.012695 0.012695 0.012695 0.012695 0.012695 -0.00440511 -0.00442676 -0.00443122 -0.00443162 -0.00443175 -0.00443162 -0.00443122 -0.00442676 -0.00440511 -0.00483564 -0.00481411 -0.00480961 -0.00480919 -0.00480908 -0.00480919 -0.00480961 -0.00481411 -0.00483564 -0.00462033 -0.00462026 -0.00462031 -0.00462029 -0.0046203 -0.00462029 -0.00462031 -0.00462026 -0.00462033 -0.0400233 -0.0400418 -0.0400465 -0.0400468 -0.040047 -0.0400468 -0.0400465 -0.0400418 -0.0400233 -0.0404724 -0.0404564 -0.0404532 -0.0404529 -0.0404528 -0.0404529 -0.0404532 -0.0404564 -0.0404724 -0.0402505 -0.0402497 -0.0402498 -0.0402498 -0.0402498 -0.0402498 -0.0402498 -0.0402497 -0.0402505 0.0269654 0.0254528 0.0239315 0.0223995 0.0208595 0.0193114 0.0177552 0.0161938 0.0146226 0.0269609 0.0254547 0.0239315 0.0224 0.0208598 0.0193116 0.017756 0.0161918 0.0146282 0.0269779 0.0254567 0.0239323 0.0224002 0.02086 0.0193118 0.0177556 0.016191 0.0146149 0.0269609 0.0254547 0.0239315 0.0224 0.0208598 0.0193116 0.017756 0.0161918 0.0146282 0.0269654 0.0254528 0.0239315 0.0223995 0.0208595 0.0193114 0.0177552 0.0161938 0.0146226 0.0269779 0.0254567 0.0239323 0.0224002 0.02086 0.0193118 0.0177556 0.016191 0.0146149 0.0107127 0.00907432 0.0074318 0.00578006 0.00412197 0.00245747 0.000786514 -0.000888003 -0.00257094 0.0107065 0.00907673 0.00743154 0.00578037 0.00412214 0.00245751 0.000787115 -0.000890104 -0.00256508 0.0107207 0.00907812 0.00743243 0.00578067 0.00412245 0.00245782 0.000786842 -0.000890874 -0.0025784 0.0107065 0.00907673 0.00743154 0.00578037 0.00412214 0.00245751 0.000787115 -0.000890104 -0.00256508 0.0107127 0.00907432 0.0074318 0.00578006 0.00412197 0.00245747 0.000786514 -0.000888003 -0.00257094 0.0107207 0.00907812 0.00743243 0.00578067 0.00412245 0.00245782 0.000786842 -0.000890874 -0.0025784 -0.00838489 -0.0118153 -0.0152538 -0.018718 -0.022201 -0.0257033 -0.0292245 -0.0327601 -0.0363173 -0.0084073 -0.0118144 -0.0152598 -0.018722 -0.0222054 -0.0257079 -0.0292281 -0.0327675 -0.0363128 -0.00838727 -0.0118127 -0.015256 -0.0187194 -0.0222027 -0.0257052 -0.0292262 -0.0327656 -0.0363271 -0.0084073 -0.0118144 -0.0152598 -0.018722 -0.0222054 -0.0257079 -0.0292281 -0.0327675 -0.0363128 -0.00838489 -0.0118153 -0.0152538 -0.018718 -0.022201 -0.0257033 -0.0292245 -0.0327601 -0.0363173 -0.00838727 -0.0118127 -0.015256 -0.0187194 -0.0222027 -0.0257052 -0.0292262 -0.0327656 -0.0363271 0.0289352 0.0291431 0.028601 0.0284752 0.0277019 0.0288031 0.0284804 0.0286107 0.0290043 0.0277183 0.0286816 0.0277308 0.028904 0.0291495 0.0285773 0.0288024 0.028792 0.029001 0.028904 0.0291495 0.0285773 0.0286107 0.0284804 0.0290043 0.0277183 0.0288024 0.028792 0.0284752 0.028601 0.0277019 0.0286816 0.0277308 0.0289352 0.0291431 0.0288031 0.029001 0.0128962 0.0130467 0.013848 0.0124887 0.0123398 0.0115075 0.0126936 0.0123561 0.0125219 0.0129112 0.0115326 0.0125362 0.0115354 0.0128678 0.0130324 0.012477 0.0138376 0.0126948 0.0126941 0.0128526 0.0138277 0.0128678 0.0130324 0.012477 0.0138376 0.0125219 0.0123561 0.0129112 0.0115326 0.0126948 0.0126941 0.0123398 0.0124887 0.0115075 0.0125362 0.0115354 0.0128962 0.0130467 0.013848 0.0126936 0.0128526 0.0138277 -0.00441765 -0.00425723 -0.00340073 -0.00484554 -0.00499828 -0.00670417 -0.00462804 -0.00497579 -0.00480335 -0.00438196 -0.00669418 -0.00478776 -0.00668969 -0.0044415 -0.00427021 -0.00483453 -0.00341019 -0.0046243 -0.00460896 -0.00445614 -0.0034203 -0.0044415 -0.00427021 -0.00483453 -0.00341019 -0.00480335 -0.00497579 -0.00438196 -0.00669418 -0.0046243 -0.00460896 -0.00499828 -0.00484554 -0.00670417 -0.00478776 -0.00668969 -0.00441765 -0.00425723 -0.00340073 -0.00462804 -0.00445614 -0.0034203 -0.04004 -0.039893 -0.0380954 -0.0404288 -0.0406748 -0.0402766 -0.0406888 -0.0404042 -0.0400379 -0.0405145 -0.0400598 -0.0399034 -0.0405367 -0.0380881 -0.0402804 -0.0402881 -0.040137 -0.0381051 -0.0400598 -0.0399034 -0.0405367 -0.0380881 -0.0404042 -0.0406888 -0.0400379 -0.0402804 -0.0402881 -0.0406748 -0.0404288 -0.0405145 -0.04004 -0.039893 -0.0380954 -0.0402766 -0.040137 -0.0381051 0.0285492 0.0288651 0.0285512 0.0288598 0.0285503 0.0288581 0.0285504 0.0288581 0.0285504 0.028858 0.0285503 0.0288581 0.0285512 0.0288581 0.0285492 0.0288598 0.0288651 0.0289835 0.0286753 0.0289922 0.0286815 0.0289914 0.0286839 0.0289918 0.0286839 0.0289918 0.028684 0.0289914 0.0286839 0.0289922 0.0286839 0.0289835 0.0286815 0.0286753 0.0287669 0.0287716 0.0287707 0.028771 0.028771 0.0287707 0.0287716 0.0287669 0.0124698 0.012797 0.0124654 0.0127883 0.0124653 0.0127858 0.0124651 0.0127857 0.0124651 0.0127857 0.0124653 0.0127857 0.0124654 0.0127858 0.0124698 0.0127883 0.012797 0.0129203 0.0125929 0.0129246 0.0126017 0.0129248 0.0126041 0.012925 0.0126042 0.012925 0.0126043 0.0129248 0.0126042 0.0129246 0.0126041 0.0129203 0.0126017 0.0125929 0.012695 0.0126949 0.0126949 0.0126949 0.0126949 0.0126949 0.0126949 0.012695 -0.0048566 -0.0045139 -0.00485873 -0.00452322 -0.00485942 -0.0045258 -0.00485949 -0.00452591 -0.00485949 -0.004526 -0.00485942 -0.00452591 -0.00485873 -0.0045258 -0.0048566 -0.00452322 -0.0045139 -0.00438802 -0.0047264 -0.00438103 -0.00471753 -0.00438137 -0.00471483 -0.00438106 -0.00471474 -0.00438106 -0.00471464 -0.00438137 -0.00471474 -0.00438103 -0.00471483 -0.00438802 -0.00471753 -0.0047264 -0.00462229 -0.00462002 -0.00462051 -0.0046204 -0.0046204 -0.00462051 -0.00462002 -0.00462229 -0.0404952 -0.0401384 -0.0405081 -0.0401454 -0.0405066 -0.0401482 -0.0405072 -0.0401483 -0.0405072 -0.0401484 -0.0405066 -0.0401483 -0.0405081 -0.0401482 -0.0404952 -0.0401454 -0.0401384 -0.0399889 -0.0403599 -0.0399939 -0.0403534 -0.0399923 -0.0403514 -0.0399925 -0.0403513 -0.0399925 -0.0403513 -0.0399923 -0.0403513 -0.0399939 -0.0403514 -0.0399889 -0.0403534 -0.0403599 -0.0402431 -0.0402511 -0.0402496 -0.04025 -0.04025 -0.0402496 -0.0402511 -0.0402431 0.0262078 0.0269697 0.0246899 0.0254552 0.0231628 0.0239318 0.0216267 0.0223999 0.0200826 0.0208598 0.0185305 0.0193116 0.0169712 0.0177556 0.015405 0.0161919 0.014621 0.0262151 0.0269702 0.0246982 0.0254554 0.0231706 0.0239319 0.0216347 0.0224001 0.0200905 0.0208599 0.0185384 0.0193118 0.0169784 0.0177557 0.0154127 0.0161919 0.0146201 0.0262151 0.0246948 0.023167 0.0216309 0.0200867 0.0185346 0.0169745 0.0154062 0.0262151 0.0269702 0.0246982 0.0254554 0.0231706 0.0239319 0.0216347 0.0224001 0.0200905 0.0208599 0.0185384 0.0193118 0.0169784 0.0177557 0.0154127 0.0161919 0.0146201 0.0262078 0.0269697 0.0246899 0.0254552 0.0231628 0.0239318 0.0216267 0.0223999 0.0200826 0.0208598 0.0185305 0.0193116 0.0169712 0.0177556 0.015405 0.0161919 0.014621 0.0262151 0.0246948 0.023167 0.0216309 0.0200867 0.0185346 0.0169745 0.0154062 0.00989085 0.0107145 0.00825062 0.00907672 0.00660306 0.00743198 0.00494813 0.00578041 0.00328678 0.00412222 0.00161905 0.00245762 -5.41158e-05 0.000786835 -0.00173264 -0.000889931 -0.00257236 0.00989843 0.0107151 0.00825906 0.00907698 0.00661077 0.00743211 0.00495594 0.0057805 0.0032945 0.0041223 0.00162686 0.0024577 -4.70633e-05 0.000786877 -0.00172504 -0.000890054 -0.00257311 0.00989769 0.00825555 0.00660719 0.00495225 0.00329083 0.00162308 -5.09043e-05 -0.0017315 0.00989843 0.0107151 0.00825906 0.00907698 0.00661077 0.00743211 0.00495594 0.0057805 0.0032945 0.0041223 0.00162686 0.0024577 -4.70633e-05 0.000786877 -0.00172504 -0.000890054 -0.00257311 0.00989085 0.0107145 0.00825062 0.00907672 0.00660306 0.00743198 0.00494813 0.00578041 0.00328678 0.00412222 0.00161905 0.00245762 -5.41158e-05 0.000786835 -0.00173264 -0.000889931 -0.00257236 0.00989769 0.00825555 0.00660719 0.00495225 0.00329083 0.00162308 -5.09043e-05 -0.0017315 -0.0101066 -0.00838737 -0.0135367 -0.0118136 -0.0169895 -0.015255 -0.0204627 -0.0187187 -0.0239556 -0.0222018 -0.0274673 -0.0257042 -0.0309967 -0.0292253 -0.0345419 -0.0327632 -0.0363209 -0.0100974 -0.00839644 -0.0135287 -0.0118138 -0.0169814 -0.0152578 -0.0204547 -0.0187207 -0.0239476 -0.0222041 -0.0274593 -0.0257065 -0.0309886 -0.0292272 -0.0345343 -0.0327664 -0.0363205 -0.0101 -0.0135321 -0.0169852 -0.0204585 -0.0239514 -0.0274631 -0.0309929 -0.0345403 -0.0100974 -0.00839644 -0.0135287 -0.0118138 -0.0169814 -0.0152578 -0.0204547 -0.0187207 -0.0239476 -0.0222041 -0.0274593 -0.0257065 -0.0309886 -0.0292272 -0.0345343 -0.0327664 -0.0363205 -0.0101066 -0.00838737 -0.0135367 -0.0118136 -0.0169895 -0.015255 -0.0204627 -0.0187187 -0.0239556 -0.0222018 -0.0274673 -0.0257042 -0.0309967 -0.0292253 -0.0345419 -0.0327632 -0.0363209 -0.0101 -0.0135321 -0.0169852 -0.0204585 -0.0239514 -0.0274631 -0.0309929 -0.0345403 
</DataArray>
<DataArray Name="Warping_Y" format="ascii" type="Float64">
0.00535612 0.00549864 0.00536996 0.00533725 0.005414 0.0054243 0.00553355 0.00540646 0.00540779 -0.0054243 -0.00533725 -0.00553355 -0.00549864 -0.005414 -0.00535612 -0.00536996 -0.00540646 -0.00540779 0.00571519 0.00572176 0.0056118 0.00555434 0.00563543 0.00555197 0.00573326 0.00563017 0.00562786 -0.00555197 -0.00555434 -0.00573326 -0.00572176 -0.00563543 -0.00571519 -0.0056118 -0.00563017 -0.00562786 0.00594895 0.0060148 0.00585304 0.00573457 0.0058714 0.00577273 0.00595128 0.00585748 0.00585703 -0.00577273 -0.00573457 -0.00595128 -0.0060148 -0.0058714 -0.00594895 -0.00585304 -0.00585748 -0.00585703 0.00644331 0.00621525 0.00624409 0.00628565 0.00626864 0.00613982 0.00640269 0.0062865 0.00627307 -0.00613982 -0.00628565 -0.00640269 -0.00621525 -0.00626864 -0.00644331 -0.00624409 -0.0062865 -0.00627307 0.0044048 0.0033059 0.0022059 0.00110265 -3.98411e-15 -0.00110265 -0.0022059 -0.0033059 -0.0044048 0.00441587 0.0033035 0.00220642 0.00110251 -3.74963e-15 -0.00110251 -0.00220642 -0.0033035 -0.00441587 0.00442435 0.00330573 0.00220599 0.00110254 -3.86048e-15 -0.00110254 -0.00220599 -0.00330573 -0.00442435 0.00456662 0.00342209 0.00228463 0.00114176 -5.1185e-16 -0.00114176 -0.00228463 -0.00342209 -0.00456662 0.00456636 0.00342212 0.00228462 0.00114176 -4.2897e-16 -0.00114176 -0.00228462 -0.00342212 -0.00456636 0.00458124 0.00342276 0.00228432 0.0011417 -4.72404e-16 -0.0011417 -0.00228432 -0.00342276 -0.00458124 0.00473475 0.00355089 0.00237029 0.00118464 2.36604e-15 -0.00118464 -0.00237029 -0.00355089 -0.00473475 0.0047404 0.00354975 0.00237056 0.00118458 2.30968e-15 -0.00118458 -0.00237056 -0.00354975 -0.0047404 0.00475435 0.0035512 0.00237012 0.00118455 2.33997e-15 -0.00118455 -0.00237012 -0.0035512 -0.00475435 0.00510967 0.00381943 0.00255183 0.00127497 -5.07673e-15 -0.00127497 -0.00255183 -0.00381943 -0.00510967 0.00509029 0.00382347 0.00255092 0.0012752 -5.34125e-15 -0.0012752 -0.00255092 -0.00382347 -0.00509029 0.00511797 0.00382288 0.0025512 0.00127504 -5.19567e-15 -0.00127504 -0.0025512 -0.00382288 -0.00511797 -0.00557449 -0.00560297 -0.00562643 -0.00564933 -0.00567226 -0.00569519 -0.00571806 -0.00573996 -0.00575481 -0.00531157 -0.00532795 -0.00534975 -0.00537171 -0.0053937 -0.00541564 -0.00543761 -0.00545978 -0.00548692 -0.00544273 -0.0054653 -0.00548809 -0.00551051 -0.00553299 -0.0055554 -0.00557784 -0.00559968 -0.00562069 0.00531157 0.00532795 0.00534975 0.00537171 0.0053937 0.00541564 0.00543761 0.00545978 0.00548692 0.00557449 0.00560297 0.00562643 0.00564933 0.00567226 0.00569519 0.00571806 0.00573996 0.00575481 0.00544273 0.0054653 0.00548809 0.00551051 0.00553299 0.0055554 0.00557784 0.00559968 0.00562069 -0.00580513 -0.00583598 -0.00585997 -0.00588303 -0.00590605 -0.00592904 -0.00595197 -0.00597393 -0.0059887 -0.00553153 -0.00554803 -0.00556967 -0.00559157 -0.00561351 -0.0056354 -0.00565732 -0.0056795 -0.00570675 -0.00566832 -0.00569185 -0.00571482 -0.00573729 -0.00575978 -0.00578221 -0.00580465 -0.00582653 -0.00584756 0.00553153 0.00554803 0.00556967 0.00559157 0.00561351 0.0056354 0.00565732 0.0056795 0.00570675 0.00580513 0.00583598 0.00585997 0.00588303 0.00590605 0.00592904 0.00595197 0.00597393 0.0059887 0.00566832 0.00569185 0.00571482 0.00573729 0.00575978 0.00578221 0.00580465 0.00582653 0.00584756 -0.00606868 -0.00613279 -0.00617421 -0.00621937 -0.00626293 -0.00630713 -0.00635033 -0.00639536 -0.0064271 -0.00570541 -0.00575495 -0.00579189 -0.00583393 -0.00587455 -0.00591582 -0.00595625 -0.00599984 -0.00604059 -0.00588694 -0.0059437 -0.00598307 -0.00602664 -0.00606874 -0.00611146 -0.00615329 -0.00619741 -0.00623325 0.00570541 0.00575495 0.00579189 0.00583393 0.00587455 0.00591582 0.00595625 0.00599984 0.00604059 0.00606868 0.00613279 0.00617421 0.00621937 0.00626293 0.00630713 0.00635033 0.00639536 0.0064271 0.00588694 0.0059437 0.00598307 0.00602664 0.00606874 0.00611146 0.00615329 0.00619741 0.00623325 0.00527319 0.00537634 0.0053395 0.00545447 0.00522913 0.00539376 0.00537944 0.00549004 0.00493847 0.00561 0.00541594 0.00541975 0.00552808 0.00543468 0.00494873 0.00545782 0.00495842 0.00540829 -0.00552808 -0.00543468 -0.00494873 -0.00549004 -0.00537944 -0.00493847 -0.00561 -0.00545782 -0.00495842 -0.00545447 -0.0053395 -0.00522913 -0.00541594 -0.00541975 -0.00527319 -0.00537634 -0.00539376 -0.00540829 0.00556546 0.00567097 0.00541465 0.00556842 0.00567695 0.00543796 0.00562906 0.00559813 0.00570076 0.00512084 0.0058311 0.00563704 0.00563542 0.00569942 0.00559425 0.00512023 0.00580599 0.0056674 0.00513513 0.00563458 0.00561106 -0.00569942 -0.00559425 -0.00512023 -0.00580599 -0.00570076 -0.00559813 -0.00512084 -0.0058311 -0.0056674 -0.00513513 -0.00567695 -0.00556842 -0.00543796 -0.00563704 -0.00563542 -0.00556546 -0.00567097 -0.00541465 -0.00562906 -0.00563458 -0.00561106 0.00579682 0.00590158 0.00563455 0.00582036 0.00594148 0.00562541 0.00586584 0.00580504 0.00590649 0.0053076 0.00604009 0.00586937 0.00583306 0.00592183 0.00581828 0.00531437 0.00604066 0.00589019 0.00532789 0.00586276 0.0058383 -0.00592183 -0.00581828 -0.00531437 -0.00604066 -0.00590649 -0.00580504 -0.0053076 -0.00604009 -0.00589019 -0.00532789 -0.00594148 -0.00582036 -0.00562541 -0.00586937 -0.00583306 -0.00579682 -0.00590158 -0.00563455 -0.00586584 -0.00586276 -0.0058383 0.00621989 0.00636298 0.00601708 0.00612118 0.00623641 0.00626525 0.00629901 0.00640241 0.00572505 0.00627179 0.00633978 0.00621577 0.00570481 0.00646175 0.00632283 0.00573419 0.00628485 0.00623907 -0.00633978 -0.00621577 -0.00570481 -0.00646175 -0.00640241 -0.00629901 -0.00572505 -0.00632283 -0.00573419 -0.00623641 -0.00612118 -0.00627179 -0.00621989 -0.00636298 -0.00601708 -0.00626525 -0.00628485 -0.00623907 0.00386181 0.00440293 0.00275637 0.00330898 0.00165434 0.00220515 0.000551316 0.00110279 -0.000551316 -3.91995e-15 -0.00165434 -0.00110279 -0.00275637 -0.00220515 -0.00386181 -0.00330898 -0.00440293 0.00386421 0.00440624 0.00275614 0.00330858 0.00165443 0.00220519 0.000551293 0.00110279 -0.000551293 -3.80859e-15 -0.00165443 -0.00110279 -0.00275614 -0.00220519 -0.00386421 -0.00330858 -0.00440624 0.00386372 0.00275597 0.00165433 0.000551285 -0.000551285 -0.00165433 -0.00275597 -0.00386372 0.0040011 0.00456029 0.00285429 0.0034263 0.00171321 0.0022835 0.000570892 0.00114197 -0.000570892 -4.90319e-16 -0.00171321 -0.00114197 -0.00285429 -0.0022835 -0.0040011 -0.0034263 -0.00456029 0.00400106 0.00456017 0.0028543 0.0034263 0.0017132 0.0022835 0.000570892 0.00114197 -0.000570892 -4.51061e-16 -0.0017132 -0.00114197 -0.0028543 -0.0022835 -0.00400106 -0.0034263 -0.00456017 0.00400111 0.00285382 0.0017131 0.000570867 -0.000570867 -0.0017131 -0.00285382 -0.00400111 0.00415081 0.00473044 0.0029615 0.00355502 0.00177751 0.00236921 0.000592329 0.00118485 -0.000592329 2.35188e-15 -0.00177751 -0.00118485 -0.0029615 -0.00236921 -0.00415081 -0.00355502 -0.00473044 0.00415184 0.00473178 0.0029613 0.00355491 0.00177756 0.00236921 0.000592313 0.00118485 -0.000592313 2.3257e-15 -0.00177756 -0.00118485 -0.0029613 -0.00236921 -0.00415184 -0.00355491 -0.00473178 0.0041516 0.00296092 0.00177743 0.000592294 -0.000592294 -0.00177743 -0.00296092 -0.0041516 0.00446949 0.00509606 0.00318719 0.00382623 0.00191334 0.00255021 0.000637537 0.00127534 -0.000637537 -5.13436e-15 -0.00191334 -0.00127534 -0.00318719 -0.00255021 -0.00446949 -0.00382623 -0.00509606 0.00446551 0.00509062 0.00318769 0.00382682 0.00191318 0.00255015 0.000637582 0.00127535 -0.000637582 -5.26762e-15 -0.00191318 -0.00127535 -0.00318769 -0.00255015 -0.00446551 -0.00382682 -0.00509062 0.0044686 0.00318714 0.00191319 0.000637537 -0.000637537 -0.00191319 -0.00318714 -0.0044686 -0.00527585 -0.00550872 -0.00529657 -0.00553406 -0.00531937 -0.00555727 -0.00534105 -0.00557992 -0.00536285 -0.00560263 -0.00538483 -0.00562529 -0.00540525 -0.00564795 -0.00542795 -0.00566975 -0.00568787 -0.0056365 -0.00537639 -0.00565579 -0.0053969 -0.0056795 -0.00541885 -0.0057024 -0.00544113 -0.00572547 -0.00546334 -0.00574876 -0.00548554 -0.00577084 -0.00550766 -0.00579765 -0.00552998 -0.00555305 -0.00545598 -0.0054762 -0.00549943 -0.00552173 -0.00554416 -0.00556678 -0.00558808 -0.0056126 0.0056365 0.00537639 0.00565579 0.0053969 0.0056795 0.00541885 0.0057024 0.00544113 0.00572547 0.00546334 0.00574876 0.00548554 0.00577084 0.00550766 0.00579765 0.00552998 0.00555305 0.00527585 0.00550872 0.00529657 0.00553406 0.00531937 0.00555727 0.00534105 0.00557992 0.00536285 0.00560263 0.00538483 0.00562529 0.00540525 0.00564795 0.00542795 0.00566975 0.00568787 0.00545598 0.0054762 0.00549943 0.00552173 0.00554416 0.00556678 0.00558808 0.0056126 -0.00549577 -0.00573683 -0.00551609 -0.00576385 -0.00553925 -0.0057874 -0.00556083 -0.00581016 -0.00558259 -0.00583291 -0.00560452 -0.00585562 -0.00562485 -0.00587831 -0.00564771 -0.00590016 -0.00591824 -0.00587018 -0.00559915 -0.00588907 -0.0056202 -0.00591323 -0.00564218 -0.00593616 -0.00566445 -0.00595932 -0.00568663 -0.0059827 -0.00570882 -0.00600484 -0.00573092 -0.00603195 -0.00575326 -0.0057764 -0.00568278 -0.00570262 -0.00572623 -0.0057485 -0.00577096 -0.0057936 -0.00581488 -0.00583963 0.00587018 0.00559915 0.00588907 0.0056202 0.00591323 0.00564218 0.00593616 0.00566445 0.00595932 0.00568663 0.0059827 0.00570882 0.00600484 0.00573092 0.00603195 0.00575326 0.0057764 0.00549577 0.00573683 0.00551609 0.00576385 0.00553925 0.0057874 0.00556083 0.00581016 0.00558259 0.00583291 0.00560452 0.00585562 0.00562485 0.00587831 0.00564771 0.00590016 0.00591824 0.00568278 0.00570262 0.00572623 0.0057485 0.00577096 0.0057936 0.00581488 0.00583963 -0.00572776 -0.00597813 -0.00575649 -0.00603815 -0.00580195 -0.00607866 -0.00584171 -0.006123 -0.00588276 -0.00616584 -0.00592427 -0.00620929 -0.00596252 -0.00625183 -0.00600978 -0.00629627 -0.00633054 -0.00613221 -0.00579568 -0.00616201 -0.00584948 -0.00621024 -0.00588744 -0.00625306 -0.0059303 -0.00629722 -0.00597164 -0.0063419 -0.00601366 -0.00638362 -0.00605472 -0.00643621 -0.00609881 -0.00613634 -0.00592976 -0.00595929 -0.00600608 -0.00604739 -0.00608999 -0.00613307 -0.00617308 -0.00622279 0.00613221 0.00579568 0.00616201 0.00584948 0.00621024 0.00588744 0.00625306 0.0059303 0.00629722 0.00597164 0.0063419 0.00601366 0.00638362 0.00605472 0.00643621 0.00609881 0.00613634 0.00572776 0.00597813 0.00575649 0.00603815 0.00580195 0.00607866 0.00584171 0.006123 0.00588276 0.00616584 0.00592427 0.00620929 0.00596252 0.00625183 0.00600978 0.00629627 0.00633054 0.00592976 0.00595929 0.00600608 0.00604739 0.00608999 0.00613307 0.00617308 0.00622279 
</DataArray>
<DataArray Name="Warping_Z" format="ascii" type="Float64">
0 0 0 0 0 0 0 0 0 0 0 0 0 0 0 0 0 0 0 0 0 0 0 0 0 0 0 0 0 0 0 0 0 0 0 0 0 0 0 0 0 0 0 0 0 0 0 0 0 0 0 0 0 0 0 0 0 0 0 0 0 0 0 0 0 0 0 0 0 0 0 0 0 0 0 0 0 0 0 0 0 0 0 0 0 0 0 0 0 0 0 0 0 0 0 0 0 0 0 0 0 0 0 0 0 0 0 0 0 0 0 0 0 0 0 0 0 0 0 0 0 0 0 0 0 0 0 0 0 0 0 0 0 0 0 0 0 0 0 0 0 0 0 0 0 0 0 0 0 0 0 0 0 0 0 0 0 0 0 0 0 0 0 0 0 0 0 0 0 0 0 0 0 0 0 0 0 0 0 0 0 0 0 0 0 0 0 0 0 0 0 0 0 0 0 0 0 0 0 0 0 0 0 0 0 0 0 0 0 0 0 0 0 0 0 0 0 0 0 0 0 0 0 0 0 0 0 0 0 0 0 0 0 0 0 0 0 0 0 0 0 0 0 0 0 0 0 0 0 0 0 0 0 0 0 0 0 0 0 0 0 0 0 0 0 0 0 0 0 0 0 0 0 0 0 0 0 0 0 0 0 0 0 0 0 0 0 0 0 0 0 0 0 0 0 0 0 0 0 0 0 0 0 0 0 0 0 0 0 0 0 0 0 0 0 0 0 0 0 0 0 0 0 0 0 0 0 0 0 0 0 0 0 0 0 0 0 0 0 0 0 0 0 0 0 0 0 0 0 0 0 0 0 0 0 0 0 0 0 0 0 0 0 0 0 0 0 0 0 0 0 0 0 0 0 0 0 0 0 0 0 0 0 0 0 0 0 0 0 0 0 0 0 0 0 0 0 0 0 0 0 0 0 0 0 0 0 0 0 0 0 0 0 0 0 0 0 0 0 0 0 0 0 0 0 0 0 0 0 0 0 0 0 0 0 0 0 0 0 0 0 0 0 0 0 0 0 0 0 0 0 0 0 0 0 0 0 0 0 0 0 0 0 0 0 0 0 0 0 0 0 0 0 0 0 0 0 0 0 0 0 0 0 0 0 0 0 0 0 0 0 0 0 0 0 0 0 0 0 0 0 0 0 0 0 0 0 0 0 0 0 0 0 0 0 0 0 0 0 0 0 0 0 0 0 0 0 0 0 0 0 0 0 0 0 0 0 0 0 0 0 0 0 0 0 0 0 0 0 0 0 0 0 0 0 0 0 0 0 0 0 0 0 0 0 0 0 0 0 0 0 0 0 0 0 0 0 0 0 0 0 0 0 0 0 0 0 0 0 0 0 0 0 0 0 0 0 0 0 0 0 0 0 0 0 0 0 0 0 0 0 0 0 0 0 0 0 0 0 0 0 0 0 0 0 0 0 0 0 0 0 0 0 0 0 0 0 0 0 0 0 0 0 0 0 0 0 0 0 0 0 0 0 0 0 0 0 0 0 0 0 0 0 0 0 0 0 0 0 0 0 0 0 0 0 0 0 0 0 0 0 0 0 0 0 0 0 0 0 0 0 0 0 0 0 0 0 0 0 0 0 0 0 0 0 0 0 0 0 0 0 0 0 0 0 0 0 0 0 0 0 0 0 0 0 0 0 0 0 0 0 0 0 0 0 0 0 0 0 0 0 0 0 0 0 0 0 0 0 0 0 0 0 0 0 0 0 0 0 0 0 0 0 0 0 0 0 0 0 0 0 0 0 0 0 0 0 0 0 0 0 0 0 0 0 0 0 0 0 0 0 0 0 0 0 0 0 0 0 0 0 0 0 0 0 0 0 0 0 0 0 0 0 0 0 0 0 0 0 0 0 0 0 0 0 0 0 0 0 0 0 0 0 0 0 0 0 0 0 0 0 0 0 0 0 0 0 0 0 0 0 0 0 0 0 0 0 0 0 0 0 0 0 0 0 0 0 0 0 0 0 0 0 0 0 0 0 0 0 0 0 0 0 0 0 0 0 0 0 0 0 0 0 0 0 0 0 0 0 0 0 0 0 0 0 0 0 0 0 0 0 0 0 0 0 0 0 0 
</DataArray>
</PointData>
<CellData>
<DataArray Name="MaterialId" format="ascii" type="Float64">
3 3 3 3 3 3 3 3 3 3 3 3 3 3 3 3 3 3 3 3 3 3 3 3 3 3 3 3 3 3 3 3 1 1 1 1 1 1 1 1 1 1 1 1 1 1 1 1 1 1 1 1 1 1 1 1 1 1 1 1 1 1 1 1 1 1 1 1 1 1 1 1 1 1 1 1 1 1 1 1 1 1 1 1 1 1 1 1 1 1 1 1 1 1 1 1 1 1 1 1 1 1 1 1 1 1 1 1 1 1 1 1 3 3 3 3 3 3 3 3 3 3 3 3 3 3 3 3 3 3 3 3 3 3 3 3 3 3 3 3 3 3 3 3 3 3 3 3 3 3 3 3 3 3 3 3 3 3 3 3 3 3 3 3 3 3 3 3 3 3 3 3 3 3 3 3 3 3 3 3 3 3 3 3 3 3 3 3 3 3 3 3 3 3 3 3 3 3 3 3 3 3 3 3 3 3 3 3 3 3 3 3 3 3 3 3 3 3 3 3 3 3 3 3 3 3 3 3 3 3 3 3 
</DataArray>
<DataArray Name="FiberAngle" format="ascii" type="Float64">
-45 -45 -45 -45 -45 -45 -45 -45 -45 -45 -45 -45 -45 -45 -45 -45 -45 -45 -45 -45 -45 -45 -45 -45 -45 -45 -45 -45 -45 -45 -45 -45 0 0 0 0 0 0 0 0 0 0 0 0 0 0 0 0 0 0 0 0 0 0 0 0 0 0 0 0 0 0 0 0 0 0 0 0 0 0 0 0 0 0 0 0 0 0 0 0 0 0 0 0 0 0 0 0 0 0 0 0 0 0 0 0 0 0 0 0 0 0 0 0 0 0 0 0 0 0 0 0 -45 -45 -45 -45 -45 -45 -45 -45 -45 -45 -45 -45 -45 -45 -45 -45 -45 -45 -45 -45 -45 -45 -45 -45 -45 -45 -45 -45 -45 -45 -45 -45 -45 -45 -45 -45 -45 -45 -45 -45 -45 -45 -45 -45 -45 -45 -45 -45 -45 -45 -45 -45 -45 -45 -45 -45 -45 -45 -45 -45 -45 -45 -45 -45 -45 -45 -45 -45 -45 -45 -45 -45 -45 -45 -45 -45 -45 -45 -45 -45 -45 -45 -45 -45 -45 -45 -45 -45 -45 -45 -45 -45 -45 -45 -45 -45 -45 -45 -45 -45 -45 -45 -45 -45 -45 -45 -45 -45 -45 -45 -45 -45 -45 -45 -45 -45 -45 -45 -45 -45 
</DataArray>
<DataArray Name="Strain_11" format="ascii" type="Float64">
-0.0680054 -0.0655739 -0.0694046 -0.064399 -0.0694046 -0.064399 -0.0680054 -0.0655739 -0.0706193 -0.0707586 -0.0675356 -0.0677328 -0.0675356 -0.0677328 -0.0706193 -0.0707586 -0.0741619 -0.0740485 -0.0708185 -0.0702984 -0.0708185 -0.0702984 -0.0741619 -0.0740485 -0.0767278 -0.0796278 -0.0754181 -0.0816659 -0.0754181 -0.0816659 -0.0767278 -0.0796278 -0.0424725 -0.0433265 -0.0441184 -0.0441277 -0.0441621 -0.0441621 -0.0441277 -0.0441184 -0.0433265 -0.0424725 -0.0429372 -0.043548 -0.0440784 -0.0440895 -0.0441145 -0.0441145 -0.0440895 -0.0440784 -0.043548 -0.0429372 -0.0434229 -0.0450755 -0.0459395 -0.0459747 -0.0460102 -0.0460102 -0.0459747 -0.0459395 -0.0450755 -0.0434229 -0.0434216 -0.0450311 -0.045893 -0.0459273 -0.0459628 -0.0459628 -0.0459273 -0.045893 -0.0450311 -0.0434216 -0.0454002 -0.0468553 -0.0477989 -0.047827 -0.0478668 -0.0478668 -0.047827 -0.0477989 -0.0468553 -0.0454002 -0.045113 -0.0468618 -0.0477421 -0.0477822 -0.0478188 -0.0478188 -0.0477822 -0.0477421 -0.0468618 -0.045113 -0.0500305 -0.0508331 -0.0514368 -0.0514548 -0.0514838 -0.0514838 -0.0514548 -0.0514368 -0.0508331 -0.0500305 -0.0497298 -0.0504214 -0.0513924 -0.0513938 -0.0514371 -0.0514371 -0.0513938 -0.0513924 -0.0504214 -0.0497298 -0.0642638 -0.0644608 -0.0648285 -0.0651863 -0.0655373 -0.0658802 -0.0662159 -0.0665459 -0.0668825 -0.0675607 -0.0640635 -0.0644479 -0.0648268 -0.0651853 -0.0655373 -0.0658801 -0.0662137 -0.0665392 -0.066847 -0.0669918 -0.0640635 -0.0644479 -0.0648268 -0.0651853 -0.0655373 -0.0658801 -0.0662137 -0.0665392 -0.066847 -0.0669918 -0.0642638 -0.0644608 -0.0648285 -0.0651863 -0.0655373 -0.0658802 -0.0662159 -0.0665459 -0.0668825 -0.0675607 -0.068376 -0.0682536 -0.0685366 -0.0688169 -0.0690915 -0.0693584 -0.0696177 -0.0698721 -0.0701275 -0.0707121 -0.0677222 -0.0682394 -0.068531 -0.0688153 -0.0690913 -0.0693582 -0.0696159 -0.0698653 -0.0701012 -0.070203 -0.0677222 -0.0682394 -0.068531 -0.0688153 -0.0690913 -0.0693582 -0.0696159 -0.0698653 -0.0701012 -0.070203 -0.068376 -0.0682536 -0.0685366 -0.0688169 -0.0690915 -0.0693584 -0.0696177 -0.0698721 -0.0701275 -0.0707121 -0.0705288 -0.0704616 -0.0710094 -0.0714008 -0.0718215 -0.0722157 -0.0725908 -0.072973 -0.0732812 -0.0738731 -0.0698782 -0.0706437 -0.0709567 -0.0714158 -0.0718177 -0.0722145 -0.0725985 -0.0729475 -0.0733552 -0.0736504 -0.0698782 -0.0706437 -0.0709567 -0.0714158 -0.0718177 -0.0722145 -0.0725985 -0.0729475 -0.0733552 -0.0736504 -0.0705288 -0.0704616 -0.0710094 -0.0714008 -0.0718215 -0.0722157 -0.0725908 -0.072973 -0.0732812 -0.0738731 
</DataArray>
<DataArray Name="Strain_22" format="ascii" type="Float64">
-0.0270201 -0.0152877 -0.0239581 -0.0148202 -0.0239581 -0.0148202 -0.0270201 -0.0152877 -0.0138236 -0.0137249 -0.0129674 -0.0127435 -0.0129674 -0.0127435 -0.0138236 -0.0137249 -0.0131892 -0.00980308 -0.0118135 -0.00742257 -0.0118135 -0.00742257 -0.0131892 -0.00980308 -0.0129925 -0.0301232 -0.0109858 -0.0261233 -0.0109858 -0.0261233 -0.0129925 -0.0301232 -0.047122 -0.0477243 -0.0479734 -0.0479306 -0.0479472 -0.0479472 -0.0479306 -0.0479734 -0.0477243 -0.047122 -0.0489198 -0.0475631 -0.0479925 -0.0479285 -0.0479476 -0.0479476 -0.0479285 -0.0479925 -0.0475631 -0.0489198 -0.0495908 -0.0492984 -0.0496872 -0.0496316 -0.049651 -0.049651 -0.0496316 -0.0496872 -0.0492984 -0.0495908 -0.0495275 -0.0493039 -0.0496869 -0.0496316 -0.049651 -0.049651 -0.0496316 -0.0496869 -0.0493039 -0.0495275 -0.0510742 -0.0511684 -0.0515518 -0.0514941 -0.0515152 -0.0515152 -0.0514941 -0.0515518 -0.0511684 -0.0510742 -0.0517996 -0.0511052 -0.051557 -0.0514939 -0.0515152 -0.0515152 -0.0514939 -0.051557 -0.0511052 -0.0517996 -0.0570346 -0.0549478 -0.0555071 -0.0554264 -0.0554498 -0.0554498 -0.0554264 -0.0555071 -0.0549478 -0.0570346 -0.0540747 -0.0552101 -0.0554793 -0.0554291 -0.0554495 -0.0554495 -0.0554291 -0.0554793 -0.0552101 -0.0540747 -0.0380504 -0.036104 -0.0359178 -0.0360144 -0.0361355 -0.0362617 -0.0363952 -0.0365518 -0.0370089 -0.0389866 -0.0381231 -0.0360262 -0.0359268 -0.0360101 -0.036136 -0.0362625 -0.03639 -0.036567 -0.0369297 -0.0392821 -0.0381231 -0.0360262 -0.0359268 -0.0360101 -0.036136 -0.0362625 -0.03639 -0.036567 -0.0369297 -0.0392821 -0.0380504 -0.036104 -0.0359178 -0.0360144 -0.0361355 -0.0362617 -0.0363952 -0.0365518 -0.0370089 -0.0389866 -0.0391379 -0.0374783 -0.0372903 -0.0374005 -0.037533 -0.0376729 -0.0378202 -0.0379914 -0.0384639 -0.0404719 -0.0394905 -0.0374019 -0.0373069 -0.0373954 -0.0375338 -0.0376736 -0.0378149 -0.0380066 -0.0383837 -0.0407509 -0.0394905 -0.0374019 -0.0373069 -0.0373954 -0.0375338 -0.0376736 -0.0378149 -0.0380066 -0.0383837 -0.0407509 -0.0391379 -0.0374783 -0.0372903 -0.0374005 -0.037533 -0.0376729 -0.0378202 -0.0379914 -0.0384639 -0.0404719 -0.0414062 -0.0404904 -0.0405438 -0.0408324 -0.0411335 -0.0414453 -0.0417651 -0.0421081 -0.0426831 -0.0445371 -0.0415293 -0.0403991 -0.0405607 -0.0408256 -0.0411349 -0.0414457 -0.0417603 -0.0421125 -0.0426026 -0.0443982 -0.0415293 -0.0403991 -0.0405607 -0.0408256 -0.0411349 -0.0414457 -0.0417603 -0.0421125 -0.0426026 -0.0443982 -0.0414062 -0.0404904 -0.0405438 -0.0408324 -0.0411335 -0.0414453 -0.0417651 -0.0421081 -0.0426831 -0.0445371 
</DataArray>
<DataArray Name="Strain_12" format="ascii" type="Float64">