<?xml version="1.0"?>
<VTKFile byte_order="LittleEndian" type="UnstructuredGrid" version="0.1">
<UnstructuredGrid>
<Piece NumberOfCells="232" NumberOfPoints="918">
<PointData>
<DataArray Name="Warping_X" format="ascii" type="Float64">
-0.0638887 -0.0642235 -0.0640748 -0.0641804 -0.0641295 -0.0639523 -0.0640876 -0.0638425 -0.0640432 -0.0639523 -0.0641804 -0.0640876 -0.0642235 -0.0641295 -0.0638887 -0.0640748 -0.0638425 -0.0640432 -0.0420255 -0.0403638 -0.0412098 -0.0408069 -0.0403779 -0.0416237 -0.0412394 -0.0420315 -0.0412243 -0.0416237 -0.0408069 -0.0412394 -0.0403638 -0.0403779 -0.0420255 -0.0412098 -0.0420315 -0.0412243 0.0143894 0.0167215 0.0155445 0.0161476 0.0166092 0.0149399 0.0155365 0.0144089 0.0155204 0.0149399 0.0161476 0.0155365 0.0167215 0.0166092 0.0143894 0.0155445 0.0144089 0.0155204 0.0953124 0.0948929 0.0951071 0.0949337 0.0948235 0.0951648 0.0950826 0.0951804 0.0950493 0.0951648 0.0949337 0.0950826 0.0948929 0.0948235 0.0953124 0.0951071 0.0951804 0.0950493 -0.0638811 -0.0638535 -0.0638377 -0.0638276 -0.0638244 -0.0638276 -0.0638377 -0.0638535 -0.0638811 -0.0641736 -0.0641547 -0.0641376 -0.0641276 -0.0641243 -0.0641276 -0.0641376 -0.0641547 -0.0641736 -0.0640322 -0.0640048 -0.0639879 -0.0639777 -0.0639744 -0.0639777 -0.0639879 -0.0640048 -0.0640322 -0.0411947 -0.0411142 -0.0410914 -0.0410807 -0.0410773 -0.0410807 -0.0410914 -0.0411142 -0.0411947 -0.0411972 -0.0412317 -0.0412225 -0.0412132 -0.04121 -0.0412132 -0.0412225 -0.0412317 -0.0411972 -0.0412003 -0.0411737 -0.0411572 -0.0411471 -0.0411438 -0.0411471 -0.0411572 -0.0411737 -0.0412003 0.0155195 0.0156201 0.015646 0.015657 0.0156603 0.015657 0.015646 0.0156201 0.0155195 0.0156157 0.0155597 0.0155665 0.0155754 0.0155786 0.0155754 0.0155665 0.0155597 0.0156157 0.0155659 0.0155896 0.0156061 0.0156161 0.0156194 0.0156161 0.0156061 0.0155896 0.0155659 0.0952389 0.0952686 0.0952852 0.0952952 0.0952985 0.0952952 0.0952852 0.0952686 0.0952389 0.0949251 0.0949435 0.0949614 0.0949712 0.0949747 0.0949712 0.0949614 0.0949435 0.0949251 0.0950888 0.0951068 0.0951234 0.0951331 0.0951365 0.0951331 0.0951234 0.0951068 0.0950888 -0.063812 -0.0628938 -0.0615634 -0.0598197 -0.0576846 -0.0551817 -0.0523331 -0.0491672 -0.045675 -0.0636856 -0.0628266 -0.0615039 -0.0597655 -0.057634 -0.0551335 -0.0522907 -0.0491157 -0.0456664 -0.0637331 -0.0628571 -0.061533 -0.0597924 -0.0576592 -0.0551576 -0.0523125 -0.049147 -0.0457055 -0.0636856 -0.0628266 -0.0615039 -0.0597655 -0.057634 -0.0551335 -0.0522907 -0.0491157 -0.0456664 -0.063812 -0.0628938 -0.0615634 -0.0598197 -0.0576846 -0.0551817 -0.0523331 -0.0491672 -0.045675 -0.0637331 -0.0628571 -0.061533 -0.0597924 -0.0576592 -0.0551576 -0.0523125 -0.049147 -0.0457055 -0.0357291 -0.0306512 -0.025428 -0.0200312 -0.0144904 -0.00882916 -0.00307082 0.0027534 0.00867659 -0.0356158 -0.0306283 -0.0253995 -0.0200103 -0.0144726 -0.00881429 -0.00306404 0.00277023 0.00860211 -0.0356366 -0.0306337 -0.0254129 -0.0200206 -0.0144814 -0.0088218 -0.00306828 0.00275493 0.00859674 -0.0356158 -0.0306283 -0.0253995 -0.0200103 -0.0144726 -0.00881429 -0.00306404 0.00277023 0.00860211 -0.0357291 -0.0306512 -0.025428 -0.0200312 -0.0144904 -0.00882916 -0.00307082 0.0027534 0.00867659 -0.0356366 -0.0306337 -0.0254129 -0.0200206 -0.0144814 -0.0088218 -0.00306828 0.00275493 0.00859674 0.0282166 0.0398158 0.0507679 0.0610292 0.0703397 0.0784984 0.085287 0.0904909 0.0938985 0.0283757 0.0397523 0.0507474 0.0609762 0.0702761 0.078418 0.0851907 0.090381 0.0937713 0.0283267 0.0397893 0.0507584 0.0610027 0.0703077 0.0784579 0.0852382 0.0904334 0.093823 0.0283757 0.0397523 0.0507474 0.0609762 0.0702761 0.078418 0.0851907 0.090381 0.0937713 0.0282166 0.0398158 0.0507679 0.0610292 0.0703397 0.0784984 0.085287 0.0904909 0.0938985 0.0283267 0.0397893 0.0507584 0.0610027 0.0703077 0.0784579 0.0852382 0.0904334 0.093823 -0.063982 -0.0638325 -0.0641588 -0.0641759 -0.064049 -0.0640669 -0.0641433 -0.0641406 -0.0637949 -0.0640047 -0.064106 -0.0640114 -0.0640182 -0.0639105 -0.0642035 -0.0641025 -0.0640053 -0.0639785 -0.0640182 -0.0639105 -0.0642035 -0.0641406 -0.0641433 -0.0637949 -0.0640047 -0.0641025 -0.0640053 -0.0641759 -0.0641588 -0.064049 -0.064106 -0.0640114 -0.063982 -0.0638325 -0.0640669 -0.0639785 -0.0416098 -0.0420318 -0.0438298 -0.0407931 -0.0403673 -0.0380953 -0.0412172 -0.0405434 -0.0410242 -0.0410354 -0.038156 -0.0408166 -0.0380822 -0.0414371 -0.0418769 -0.0413602 -0.0437918 -0.0412446 -0.0412021 -0.0416303 -0.04386 -0.0414371 -0.0418769 -0.0413602 -0.0437918 -0.0410242 -0.0405434 -0.0410354 -0.038156 -0.0412446 -0.0412021 -0.0403673 -0.0407931 -0.0380953 -0.0408166 -0.0380822 -0.0416098 -0.0420318 -0.0438298 -0.0412172 -0.0416303 -0.04386 0.0149726 0.014396 0.0115846 0.0161167 0.0166668 0.0223947 0.0155323 0.0164152 0.0158433 0.0157255 0.0224363 0.0160634 0.0224463 0.0152343 0.014611 0.0154139 0.0116355 0.0155236 0.0155675 0.0149765 0.0115556 0.0152343 0.014611 0.0154139 0.0116355 0.0158433 0.0164152 0.0157255 0.0224363 0.0155236 0.0155675 0.0166668 0.0161167 0.0223947 0.0160634 0.0224463 0.0149726 0.014396 0.0115846 0.0155323 0.0149765 0.0115556 0.0952212 0.095247 0.0947785 0.0949971 0.0948226 0.095091 0.0948914 0.0950078 0.0952347 0.094972 0.0951338 0.0951627 0.09479 0.0948236 0.0951087 0.0950206 0.0951301 0.0947898 0.0951338 0.0951627 0.09479 0.0948236 0.0950078 0.0948914 0.0952347 0.0951087 0.0950206 0.0948226 0.0949971 0.094972 0.0952212 0.095247 0.0947785 0.095091 0.0951301 0.0947898 -0.0642145 -0.0639574 -0.0641848 -0.0639291 -0.0641727 -0.0639128 -0.0641657 -0.0639027 -0.0641657 -0.0638994 -0.0641727 -0.0639027 -0.0641848 -0.0639128 -0.0642145 -0.0639291 -0.0639574 -0.0638338 -0.0641005 -0.0638039 -0.0640803 -0.0637926 -0.0640626 -0.0637855 -0.0640527 -0.0637855 -0.0640493 -0.0637926 -0.0640527 -0.0638039 -0.0640626 -0.0638338 -0.0640803 -0.0641005 -0.0640244 -0.0639947 -0.0639828 -0.0639758 -0.0639758 -0.0639828 -0.0639947 -0.0640244 -0.0412827 -0.0411967 -0.0412503 -0.0411444 -0.0412359 -0.0411242 -0.041229 -0.0411139 -0.041229 -0.0411105 -0.0412359 -0.0411139 -0.0412503 -0.0411242 -0.0412827 -0.0411444 -0.0411967 -0.0410915 -0.0411977 -0.0410788 -0.0412028 -0.0410674 -0.0411898 -0.0410609 -0.0411801 -0.0410609 -0.0411768 -0.0410674 -0.0411801 -0.0410788 -0.0411898 -0.0410915 -0.0412028 -0.0411977 -0.0411877 -0.0411648 -0.0411519 -0.0411451 -0.0411451 -0.0411519 -0.0411648 -0.0411877 0.0155085 0.015543 0.0155448 0.0156045 0.0155594 0.0156261 0.0155664 0.0156365 0.0155664 0.0156399 0.0155594 0.0156365 0.0155448 0.0156261 0.0155085 0.0156045 0.015543 0.0156438 0.0155914 0.015653 0.0155748 0.0156635 0.0155863 0.01567 0.0155958 0.01567 0.015599 0.0156635 0.0155958 0.015653 0.0155863 0.0156438 0.0155748 0.0155914 0.0155759 0.0155986 0.0156112 0.015618 0.015618 0.0156112 0.0155986 0.0155759 0.0948997 0.0951605 0.0949079 0.0951886 0.0949238 0.0952041 0.0949299 0.0952142 0.0949299 0.0952174 0.0949238 0.0952142 0.0949079 0.0952041 0.0948997 0.0951886 0.0951605 0.0953111 0.0950074 0.0953193 0.0950252 0.0953342 0.0950424 0.0953404 0.0950522 0.0953404 0.0950556 0.0953342 0.0950522 0.0953193 0.0950424 0.0953111 0.0950252 0.0950074 0.0951055 0.0951137 0.0951289 0.095135 0.095135 0.0951289 0.0951137 0.0951055 -0.063326 -0.0637757 -0.0622007 -0.0628756 -0.0606636 -0.0615483 -0.0587251 -0.059806 -0.0564068 -0.0576719 -0.0537323 -0.0551696 -0.0507262 -0.052323 -0.0474083 -0.0491566 -0.0456919 -0.0633925 -0.0637111 -0.0623004 -0.0628405 -0.0607647 -0.0615187 -0.058823 -0.0597789 -0.0565002 -0.0576465 -0.0538216 -0.0551458 -0.0508075 -0.0523004 -0.0474874 -0.0491357 -0.0456686 -0.0633562 -0.0622499 -0.060714 -0.0587739 -0.0564534 -0.0537769 -0.0507677 -0.0474554 -0.0633925 -0.0637111 -0.0623004 -0.0628405 -0.0607647 -0.0615187 -0.058823 -0.0597789 -0.0565002 -0.0576465 -0.0538216 -0.0551458 -0.0508075 -0.0523004 -0.0474874 -0.0491357 -0.0456686 -0.063326 -0.0637757 -0.0622007 -0.0628756 -0.0606636 -0.0615483 -0.0587251 -0.059806 -0.0564068 -0.0576719 -0.0537323 -0.0551696 -0.0507262 -0.052323 -0.0474083 -0.0491566 -0.0456919 -0.0633562 -0.0622499 -0.060714 -0.0587739 -0.0564534 -0.0537769 -0.0507677 -0.0474554 -0.0331679 -0.0356821 -0.0280269 -0.0306435 -0.0227173 -0.0254202 -0.0172499 -0.020026 -0.0116498 -0.0144859 -0.0059416 -0.0088254 -0.000150928 -0.00306982 0.00570978 0.00275527 0.00863475 -0.0331844 -0.0356429 -0.0280705 -0.0306259 -0.0227569 -0.0254074 -0.0172858 -0.0200151 -0.0116805 -0.014477 -0.00596851 -0.00881845 -0.000171818 -0.00306457 0.00566833 0.00275645 0.00862094 -0.0331692 -0.0280477 -0.0227369 -0.0172678 -0.0116651 -0.00595517 -0.000162439 0.00568062 -0.0331844 -0.0356429 -0.0280705 -0.0306259 -0.0227569 -0.0254074 -0.0172858 -0.0200151 -0.0116805 -0.014477 -0.00596851 -0.00881845 -0.000171818 -0.00306457 0.00566833 0.00275645 0.00862094 -0.0331679 -0.0356821 -0.0280269 -0.0306435 -0.0227173 -0.0254202 -0.0172499 -0.020026 -0.0116498 -0.0144859 -0.0059416 -0.0088254 -0.000150928 -0.00306982 0.00570978 0.00275527 0.00863475 -0.0331692 -0.0280477 -0.0227369 -0.0172678 -0.0116651 -0.00595517 -0.000162439 0.00568062 0.0340936 0.0282729 0.0453368 0.0398016 0.0559642 0.0507636 0.0657565 0.0610158 0.0745019 0.0703238 0.0819851 0.0784781 0.0879926 0.0852626 0.0923151 0.090462 0.0938617 0.0340988 0.0283391 0.0453629 0.0397746 0.0560065 0.0507517 0.0658182 0.0609898 0.0745823 0.0702918 0.0820841 0.0784379 0.0881079 0.0852145 0.0924339 0.0904066 0.0937993 0.0341014 0.0453507 0.0559854 0.0657873 0.074542 0.0820344 0.0880497 0.0923723 0.0340988 0.0283391 0.0453629 0.0397746 0.0560065 0.0507517 0.0658182 0.0609898 0.0745823 0.0702918 0.0820841 0.0784379 0.0881079 0.0852145 0.0924339 0.0904066 0.0937993 0.0340936 0.0282729 0.0453368 0.0398016 0.0559642 0.0507636 0.0657565 0.0610158 0.0745019 0.0703238 0.0819851 0.0784781 0.0879926 0.0852626 0.0923151 0.090462 0.0938617 0.0341014 0.0453507 0.0559854 0.0657873 0.074542 0.0820344 0.0880497 0.0923723 
</DataArray>
<DataArray Name="Warping_Y" format="ascii" type="Float64">
0.0043711 0.00446612 0.00434944 0.00430416 0.00437225 0.00445412 0.00449733 0.00438472 0.00438287 -0.00445412 -0.00430416 -0.00449733 -0.00446612 -0.00437225 -0.0043711 -0.00434944 -0.00438472 -0.00438287 0.00235117 0.00233565 0.00224262 0.00214276 0.0022323 0.00217791 0.00224776 0.00226351 0.00227128 -0.00217791 -0.00214276 -0.00224776 -0.00233565 -0.0022323 -0.00235117 -0.00224262 -0.00226351 -0.00227128 0.00153831 0.00159096 0.00145016 0.00129174 0.00143927 0.00133701 0.00139559 0.00143267 0.00146331 -0.00133701 -0.00129174 -0.00139559 -0.00159096 -0.00143927 -0.00153831 -0.00145016 -0.00143267 -0.00146331 0.00511216 0.00491819 0.00491592 0.00498955 0.004926 0.00481671 0.00503628 0.00495238 0.00493398 -0.00481671 -0.00498955 -0.00503628 -0.00491819 -0.004926 -0.00511216 -0.00491592 -0.00495238 -0.00493398 0.00356297 0.0026803 0.00178851 0.00089424 8.62087e-15 -0.00089424 -0.00178851 -0.0026803 -0.00356297 0.00358552 0.00267633 0.00178896 0.000893847 8.91695e-15 -0.000893847 -0.00178896 -0.00267633 -0.00358552 0.0035942 0.00268176 0.00178917 0.000894117 8.76254e-15 -0.000894117 -0.00178917 -0.00268176 -0.0035942 0.00170772 0.0012884 0.000861891 0.000431244 4.69949e-16 -0.000431244 -0.000861891 -0.0012884 -0.00170772 0.00171369 0.00128728 0.00086165 0.000431011 4.69034e-16 -0.000431011 -0.00086165 -0.00128728 -0.00171369 0.00175791 0.00129986 0.000864105 0.000431537 4.71265e-16 -0.000431537 -0.000864105 -0.00129986 -0.00175791 0.00100317 0.000762409 0.000511162 0.0002561 -3.70913e-15 -0.0002561 -0.000511162 -0.000762409 -0.00100317 0.00100973 0.000760379 0.00051109 0.000255806 -3.55701e-15 -0.000255806 -0.00051109 -0.000760379 -0.00100973 0.00106516 0.000776863 0.000514212 0.000256494 -3.63571e-15 -0.000256494 -0.000514212 -0.000776863 -0.00106516 0.00401681 0.00299628 0.00200293 0.00100062 -3.01654e-15 -0.00100062 -0.00200293 -0.00299628 -0.00401681 0.00398738 0.00299986 0.00200139 0.00100064 -2.77239e-15 -0.00100064 -0.00200139 -0.00299986 -0.00398738 0.004025 0.00300207 0.00200268 0.00100071 -2.91885e-15 -0.00100071 -0.00200268 -0.00300207 -0.004025 -0.00446494 -0.00422806 -0.0039617 -0.00369994 -0.0034482 -0.00320764 -0.00297856 -0.00276284 -0.0025613 -0.0041884 -0.00393708 -0.00366954 -0.00340734 -0.00315525 -0.00291417 -0.00268445 -0.00246664 -0.00227385 -0.00432112 -0.00408138 -0.00381544 -0.00355375 -0.00330188 -0.00306111 -0.00283158 -0.00261534 -0.00241524 0.0041884 0.00393708 0.00366954 0.00340734 0.00315525 0.00291417 0.00268445 0.00246664 0.00227385 0.00446494 0.00422806 0.0039617 0.00369994 0.0034482 0.00320764 0.00297856 0.00276284 0.0025613 0.00432112 0.00408138 0.00381544 0.00355375 0.00330188 0.00306111 0.00283158 0.00261534 0.00241524 -0.00241106 -0.00230692 -0.00219107 -0.00208501 -0.0019911 -0.00191001 -0.00184142 -0.00178462 -0.00172601 -0.00209431 -0.00197925 -0.00186478 -0.00175879 -0.00166486 -0.00158341 -0.00151426 -0.00145478 -0.00140449 -0.0022465 -0.00214275 -0.00202776 -0.00192208 -0.00182814 -0.00174692 -0.00167771 -0.00161974 -0.00155941 0.00209431 0.00197925 0.00186478 0.00175879 0.00166486 0.00158341 0.00151426 0.00145478 0.00140449 0.00241106 0.00230692 0.00219107 0.00208501 0.0019911 0.00191001 0.00184142 0.00178462 0.00172601 0.0022465 0.00214275 0.00202776 0.00192208 0.00182814 0.00174692 0.00167771 0.00161974 0.00155941 -0.00210361 -0.00203243 -0.00218034 -0.00237947 -0.00268495 -0.00308171 -0.00357354 -0.00414952 -0.00476089 -0.00170823 -0.00162542 -0.00177315 -0.00197286 -0.0022792 -0.00267699 -0.00317022 -0.00374911 -0.00437475 -0.00190139 -0.00182979 -0.00197697 -0.00217675 -0.00248258 -0.00287987 -0.00337226 -0.00394917 -0.00456519 0.00170823 0.00162542 0.00177315 0.00197286 0.0022792 0.00267699 0.00317022 0.00374911 0.00437475 0.00210361 0.00203243 0.00218034 0.00237947 0.00268495 0.00308171 0.00357354 0.00414952 0.00476089 0.00190139 0.00182979 0.00197697 0.00217675 0.00248258 0.00287987 0.00337226 0.00394917 0.00456519 0.00427595 0.0043749 0.00431738 0.00441729 0.00419848 0.00437051 0.00433889 0.00444651 0.00398773 0.00460757 0.0043929 0.00440243 0.0045152 0.00443337 0.00399971 0.0044252 0.00401954 0.00439748 -0.0045152 -0.00443337 -0.00399971 -0.00444651 -0.00433889 -0.00398773 -0.00460757 -0.0044252 -0.00401954 -0.00441729 -0.00431738 -0.00419848 -0.0043929 -0.00440243 -0.00427595 -0.0043749 -0.00437051 -0.00439748 0.0021842 0.00230666 0.00224486 0.00217425 0.00228349 0.00220243 0.0022632 0.0021876 0.00219748 0.00187583 0.0026667 0.00223199 0.00242509 0.00221384 0.00222225 0.00187268 0.00266987 0.00224637 0.00194636 0.00224312 0.00244909 -0.00221384 -0.00222225 -0.00187268 -0.00266987 -0.00219748 -0.0021876 -0.00187583 -0.0026667 -0.00224637 -0.00194636 -0.00228349 -0.00217425 -0.00220243 -0.00223199 -0.00242509 -0.0021842 -0.00230666 -0.00224486 -0.0022632 -0.00224312 -0.00244909 0.00136755 0.00148529 0.00147065 0.0013811 0.00151491 0.00190769 0.0014626 0.00136666 0.0013386 0.00107027 0.00236623 0.00142012 0.00213031 0.00135586 0.00138491 0.00106979 0.00194061 0.00141582 0.00116097 0.00141848 0.00169427 -0.00135586 -0.00138491 -0.00106979 -0.00194061 -0.0013386 -0.00136666 -0.00107027 -0.00236623 -0.00141582 -0.00116097 -0.00151491 -0.0013811 -0.00190769 -0.00142012 -0.00213031 -0.00136755 -0.00148529 -0.00147065 -0.0014626 -0.00141848 -0.00169427 0.00490856 0.00503004 0.0045745 0.00482224 0.00491903 0.00493186 0.0049726 0.00505687 0.00449189 0.00494444 0.00498174 0.00488503 0.00444965 0.00501741 0.00496969 0.00450051 0.0049618 0.00479555 -0.00498174 -0.00488503 -0.00444965 -0.00501741 -0.00505687 -0.0049726 -0.00449189 -0.00496969 -0.00450051 -0.00491903 -0.00482224 -0.00494444 -0.00490856 -0.00503004 -0.0045745 -0.00493186 -0.0049618 -0.00479555 0.00312246 0.00356891 0.00223155 0.00268344 0.00133955 0.00178823 0.000446465 0.00089433 -0.000446465 8.69431e-15 -0.00133955 -0.00089433 -0.00223155 -0.00178823 -0.00312246 -0.00268344 -0.00356891 0.00313622 0.00357586 0.00223712 0.00268279 0.00134341 0.00178806 0.000447638 0.000894232 -0.000447638 8.83208e-15 -0.00134341 -0.000894232 -0.00223712 -0.00178806 -0.00313622 -0.00268279 -0.00357586 0.00313373 0.00223486 0.00134157 0.000447054 -0.000447054 -0.00134157 -0.00223486 -0.00313373 0.00149241 0.00172797 0.0010729 0.00129468 0.000644903 0.000862764 0.000215026 0.00043144 -0.000215026 4.65807e-16 -0.000644903 -0.00043144 -0.0010729 -0.000862764 -0.00149241 -0.00129468 -0.00172797 0.00150266 0.00172959 0.00107879 0.00129446 0.000648633 0.000862539 0.00021623 0.000431347 -0.00021623 4.74501e-16 -0.000648633 -0.000431347 -0.00107879 -0.000862539 -0.00150266 -0.00129446 -0.00172959 0.00151411 0.001079 0.000647299 0.000215699 -0.000215699 -0.000647299 -0.001079 -0.00151411 0.000875619 0.00103044 0.000634543 0.000769602 0.000382079 0.000512573 0.000127456 0.000256311 -0.000127456 -3.66967e-15 -0.000382079 -0.000256311 -0.000634543 -0.000512573 -0.000875619 -0.000769602 -0.00103044 0.000885261 0.00103152 0.000640321 0.000769206 0.000385806 0.000512359 0.000128653 0.000256208 -0.000128653 -3.5974e-15 -0.000385806 -0.000256208 -0.000640321 -0.000512359 -0.000885261 -0.000769206 -0.00103152 0.000901977 0.000641605 0.000384651 0.00012815 -0.00012815 -0.000384651 -0.000641605 -0.000901977 0.0035021 0.00400396 0.00249752 0.00300368 0.00149976 0.00200159 0.000499693 0.00100096 -0.000499693 -2.9697e-15 -0.00149976 -0.00100096 -0.00249752 -0.00200159 -0.0035021 -0.00300368 -0.00400396 0.00350467 0.0039955 0.00250446 0.00300363 0.00150318 0.00200135 0.000500984 0.00100084 -0.000500984 -2.84344e-15 -0.00150318 -0.00100084 -0.00250446 -0.00200135 -0.00350467 -0.00300363 -0.0039955 0.00350853 0.00250162 0.00150158 0.00050034 -0.00050034 -0.00150158 -0.00250162 -0.00350853 -0.00399891 -0.0043926 -0.0037575 -0.00415453 -0.0034934 -0.00388857 -0.00323664 -0.00362682 -0.00299034 -0.00337504 -0.00275398 -0.00313435 -0.00253493 -0.00290512 -0.00230948 -0.00268888 -0.00248839 -0.00438088 -0.00425414 -0.00413716 -0.0040092 -0.00387301 -0.00374247 -0.00361676 -0.00348053 -0.00337094 -0.00322857 -0.00313491 -0.00298761 -0.00291694 -0.00275811 -0.00269383 -0.00254077 -0.00234575 -0.00419053 -0.00394739 -0.00368332 -0.00342681 -0.00318074 -0.00294462 -0.00272578 -0.00250241 0.00438088 0.00425414 0.00413716 0.0040092 0.00387301 0.00374247 0.00361676 0.00348053 0.00337094 0.00322857 0.00313491 0.00298761 0.00291694 0.00275811 0.00269383 0.00254077 0.00234575 0.00399891 0.0043926 0.0037575 0.00415453 0.0034934 0.00388857 0.00323664 0.00362682 0.00299034 0.00337504 0.00275398 0.00313435 0.00253493 0.00290512 0.00230948 0.00268888 0.00248839 0.00419053 0.00394739 0.00368332 0.00342681 0.00318074 0.00294462 0.00272578 0.00250241 -0.00196055 -0.00232853 -0.00187819 -0.00222455 -0.00176337 -0.00210946 -0.00166461 -0.00200351 -0.001577 -0.00190963 -0.00150025 -0.00182843 -0.0014422 -0.00175962 -0.00135316 -0.0017019 -0.00164249 -0.00238158 -0.00217151 -0.00229721 -0.00206061 -0.0021819 -0.00194638 -0.0020835 -0.00184039 -0.00199611 -0.00174652 -0.00191939 -0.00166511 -0.0018623 -0.00159613 -0.00177534 -0.0015368 -0.00148355 -0.00217236 -0.00208751 -0.00197282 -0.00187416 -0.00178666 -0.00171002 -0.00165199 -0.00156562 0.00238158 0.00217151 0.00229721 0.00206061 0.0021819 0.00194638 0.0020835 0.00184039 0.00199611 0.00174652 0.00191939 0.00166511 0.0018623 0.00159613 0.00177534 0.0015368 0.00148355 0.00196055 0.00232853 0.00187819 0.00222455 0.00176337 0.00210946 0.00166461 0.00200351 0.001577 0.00190963 0.00150025 0.00182843 0.0014422 0.00175962 0.00135316 0.0017019 0.00164249 0.00217236 0.00208751 0.00197282 0.00187416 0.00178666 0.00171002 0.00165199 0.00156562 -0.00151466 -0.00200235 -0.00171297 -0.00193102 -0.00184055 -0.00207868 -0.00210686 -0.0022781 -0.0024553 -0.00258377 -0.00290138 -0.00298078 -0.00343923 -0.00347293 -0.00404062 -0.00404922 -0.00466327 -0.00194973 -0.00180495 -0.0021455 -0.00172756 -0.00227202 -0.0018751 -0.00253756 -0.00207479 -0.00288502 -0.0023809 -0.00332997 -0.00277843 -0.00386685 -0.00327123 -0.00446879 -0.0038492 -0.00446966 -0.00173371 -0.001929 -0.00205666 -0.00232243 -0.00267042 -0.00311592 -0.00365321 -0.00425468 0.00194973 0.00180495 0.0021455 0.00172756 0.00227202 0.0018751 0.00253756 0.00207479 0.00288502 0.0023809 0.00332997 0.00277843 0.00386685 0.00327123 0.00446879 0.0038492 0.00446966 0.00151466 0.00200235 0.00171297 0.00193102 0.00184055 0.00207868 0.00210686 0.0022781 0.0024553 0.00258377 0.00290138 0.00298078 0.00343923 0.00347293 0.00404062 0.00404922 0.00466327 0.00173371 0.001929 0.00205666 0.00232243 0.00267042 0.00311592 0.00365321 0.00425468 
</DataArray>
<DataArray Name="Warping_Z" format="ascii" type="Float64">
0 0 0 0 0 0 0 0 0 0 0 0 0 0 0 0 0 0 0 0 0 0 0 0 0 0 0 0 0 0 0 0 0 0 0 0 0 0 0 0 0 0 0 0 0 0 0 0 0 0 0 0 0 0 0 0 0 0 0 0 0 0 0 0 0 0 0 0 0 0 0 0 0 0 0 0 0 0 0 0 0 0 0 0 0 0 0 0 0 0 0 0 0 0 0 0 0 0 0 0 0 0 0 0 0 0 0 0 0 0 0 0 0 0 0 0 0 0 0 0 0 0 0 0 0 0 0 0 0 0 0 0 0 0 0 0 0 0 0 0 0 0 0 0 0 0 0 0 0 0 0 0 0 0 0 0 0 0 0 0 0 0 0 0 0 0 0 0 0 0 0 0 0 0 0 0 0 0 0 0 0 0 0 0 0 0 0 0 0 0 0 0 0 0 0 0 0 0 0 0 0 0 0 0 0 0 0 0 0 0 0 0 0 0 0 0 0 0 0 0 0 0 0 0 0 0 0 0 0 0 0 0 0 0 0 0 0 0 0 0 0 0 0 0 0 0 0 0 0 0 0 0 0 0 0 0 0 0 0 0 0 0 0 0 0 0 0 0 0 0 0 0 0 0 0 0 0 0 0 0 0 0 0 0 0 0 0 0 0 0 0 0 0 0 0 0 0 0 0 0 0 0 0 0 0 0 0 0 0 0 0 0 0 0 0 0 0 0 0 0 0 0 0 0 0 0 0 0 0 0 0 0 0 0 0 0 0 0 0 0 0 0 0 0 0 0 0 0 0 0 0 0 0 0 0 0 0 0 0 0 0 0 0 0 0 0 0 0 0 0 0 0 0 0 0 0 0 0 0 0 0 0 0 0 0 0 0 0 0 0 0 0 0 0 0 0 0 0 0 0 0 0 0 0 0 0 0 0 0 0 0 0 0 0 0 0 0 0 0 0 0 0 0 0 0 0 0 0 0 0 0 0 0 0 0 0 0 0 0 0 0 0 0 0 0 0 0 0 0 0 0 0 0 0 0 0 0 0 0 0 0 0 0 0 0 0 0 0 0 0 0 0 0 0 0 0 0 0 0 0 0 0 0 0 0 0 0 0 0 0 0 0 0 0 0 0 0 0 0 0 0 0 0 0 0 0 0 0 0 0 0 0 0 0 0 0 0 0 0 0 0 0 0 0 0 0 0 0 0 0 0 0 0 0 0 0 0 0 0 0 0 0 0 0 0 0 0 0 0 0 0 0 0 0 0 0 0 0 0 0 0 0 0 0 0 0 0 0 0 0 0 0 0 0 0 0 0 0 0 0 0 0 0 0 0 0 0 0 0 0 0 0 0 0 0 0 0 0 0 0 0 0 0 0 0 0 0 0 0 0 0 0 0 0 0 0 0 0 0 0 0 0 0 0 0 0 0 0 0 0 0 0 0 0 0 0 0 0 0 0 0 0 0 0 0 0 0 0 0 0 0 0 0 0 0 0 0 0 0 0 0 0 0 0 0 0 0 0 0 0 0 0 0 0 0 0 0 0 0 0 0 0 0 0 0 0 0 0 0 0 0 0 0 0 0 0 0 0 0 0 0 0 0 0 0 0 0 0 0 0 0 0 0 0 0 0 0 0 0 0 0 0 0 0 0 0 0 0 0 0 0 0 0 0 0 0 0 0 0 0 0 0 0 0 0 0 0 0 0 0 0 0 0 0 0 0 0 0 0 0 0 0 0 0 0 0 0 0 0 0 0 0 0 0 0 0 0 0 0 0 0 0 0 0 0 0 0 0 0 0 0 0 0 0 0 0 0 0 0 0 0 0 0 0 0 0 0 0 0 0 0 0 0 0 0 0 0 0 0 0 0 0 0 0 0 0 0 0 0 0 0 0 0 0 0 0 0 0 0 0 0 0 0 0 0 0 0 0 0 0 0 0 0 0 0 0 0 0 0 0 0 0 0 0 0 0 0 0 0 0 0 0 0 0 0 0 0 0 0 0 0 0 0 0 0 0 0 0 0 0 0 0 0 0 0 0 0 0 0 0 0 0 0 0 0 0 0 0 0 0 0 0 0 0 0 0 0 0 
</DataArray>
</PointData>
<CellData>
<DataArray Name="MaterialId" format="ascii" type="Float64">
3 3 3 3 3 3 3 3 3 3 3 3 3 3 3 3 3 3 3 3 3 3 3 3 3 3 3 3 3 3 3 3 1 1 1 1 1 1 1 1 1 1 1 1 1 1 1 1 1 1 1 1 1 1 1 1 1 1 1 1 1 1 1 1 1 1 1 1 1 1 1 1 1 1 1 1 1 1 1 1 1 1 1 1 1 1 1 1 1 1 1 1 1 1 1 1 1 1 1 1 1 1 1 1 1 1 1 1 1 1 1 1 3 3 3 3 3 3 3 3 3 3 3 3 3 3 3 3 3 3 3 3 3 3 3 3 3 3 3 3 3 3 3 3 3 3 3 3 3 3 3 3 3 3 3 3 3 3 3 3 3 3 3 3 3 3 3 3 3 3 3 3 3 3 3 3 3 3 3 3 3 3 3 3 3 3 3 3 3 3 3 3 3 3 3 3 3 3 3 3 3 3 3 3 3 3 3 3 3 3 3 3 3 3 3 3 3 3 3 3 3 3 3 3 3 3 3 3 3 3 3 3 
</DataArray>
<DataArray Name="FiberAngle" format="ascii" type="Float64">
-45 -45 -45 -45 -45 -45 -45 -45 -45 -45 -45 -45 -45 -45 -45 -45 -45 -45 -45 -45 -45 -45 -45 -45 -45 -45 -45 -45 -45 -45 -45 -45 0 0 0 0 0 0 0 0 0 0 0 0 0 0 0 0 0 0 0 0 0 0 0 0 0 0 0 0 0 0 0 0 0 0 0 0 0 0 0 0 0 0 0 0 0 0 0 0 0 0 0 0 0 0 0 0 0 0 0 0 0 0 0 0 0 0 0 0 0 0 0 0 0 0 0 0 0 0 0 0 -45 -45 -45 -45 -45 -45 -45 -45 -45 -45 -45 -45 -45 -45 -45 -45 -45 -45 -45 -45 -45 -45 -45 -45 -45 -45 -45 -45 -45 -45 -45 -45 -45 -45 -45 -45 -45 -45 -45 -45 -45 -45 -45 -45 -45 -45 -45 -45 -45 -45 -45 -45 -45 -45 -45 -45 -45 -45 -45 -45 -45 -45 -45 -45 -45 -45 -45 -45 -45 -45 -45 -45 -45 -45 -45 -45 -45 -45 -45 -45 -45 -45 -45 -45 -45 -45 -45 -45 -45 -45 -45 -45 -45 -45 -45 -45 -45 -45 -45 -45 -45 -45 -45 -45 -45 -45 -45 -45 -45 -45 -45 -45 -45 -45 -45 -45 -45 -45 -45 -45 
</DataArray>
<DataArray Name="Strain_11" format="ascii" type="Float64">
-0.0468624 -0.0218042 -0.0384067 -0.00815065 -0.0384067 -0.00815065 -0.0468624 -0.0218042 0.162908 0.169984 0.126473 0.140241 0.126473 0.140241 0.162908 0.169984 0.227261 0.226915 0.182519 0.17832 0.182519 0.17832 0.227261 0.226915 -0.0311924 -0.0536742 -0.0108015 -0.0434613 -0.0108015 -0.0434613 -0.0311924 -0.0536742 -0.0420773 -0.0381269 -0.0381537 -0.038043 -0.0380601 -0.0380601 -0.038043 -0.0381537 -0.0381269 -0.0420773 -0.0396382 -0.0380162 -0.0380164 -0.037976 -0.037989 -0.037989 -0.037976 -0.0380164 -0.0380162 -0.0396382 -0.0333494 -0.0192504 -0.017215 -0.016887 -0.016854 -0.016854 -0.016887 -0.017215 -0.0192504 -0.0333494 -0.0316226 -0.0190009 -0.0171028 -0.0168139 -0.0167842 -0.0167842 -0.0168139 -0.0171028 -0.0190009 -0.0316226 -0.031615 -0.0135669 -0.0108647 -0.0104438 -0.0103978 -0.0103978 -0.0104438 -0.0108647 -0.0135669 -0.031615 -0.0307158 -0.0134831 -0.0107709 -0.0103768 -0.0103283 -0.0103283 -0.0103768 -0.0107709 -0.0134831 -0.0307158 -0.0428322 -0.0411147 -0.0411217 -0.0410774 -0.0410912 -0.0410912 -0.0410774 -0.0411217 -0.0411147 -0.0428322 -0.0461212 -0.0411679 -0.0411506 -0.0410083 -0.0410264 -0.0410264 -0.0410083 -0.0411506 -0.0411679 -0.0461212 0.0183935 0.0370465 0.0562465 0.0740345 0.0907397 0.10641 0.121082 0.134668 0.147536 0.161348 0.017027 0.0383028 0.0564823 0.0741395 0.0908133 0.106482 0.121132 0.134739 0.147433 0.155752 0.017027 0.0383028 0.0564823 0.0741395 0.0908133 0.106482 0.121132 0.134739 0.147433 0.155752 0.0183935 0.0370465 0.0562465 0.0740345 0.0907397 0.10641 0.121082 0.134668 0.147536 0.161348 0.204188 0.20904 0.217436 0.224679 0.230755 0.235774 0.239745 0.242543 0.244354 0.249587 0.195217 0.209943 0.217635 0.224761 0.230836 0.235854 0.239816 0.242712 0.244978 0.240051 0.195217 0.209943 0.217635 0.224761 0.230836 0.235854 0.239816 0.242712 0.244978 0.240051 0.204188 0.20904 0.217436 0.224679 0.230755 0.235774 0.239745 0.242543 0.244354 0.249587 0.245853 0.235783 0.226333 0.211094 0.191794 0.167962 0.139724 0.107052 0.0699534 0.0281122 0.239299 0.237706 0.22602 0.211385 0.191918 0.168131 0.139887 0.107204 0.0700955 0.0285628 0.239299 0.237706 0.22602 0.211385 0.191918 0.168131 0.139887 0.107204 0.0700955 0.0285628 0.245853 0.235783 0.226333 0.211094 0.191794 0.167962 0.139724 0.107052 0.0699534 0.0281122 
</DataArray>
<DataArray Name="Strain_22" format="ascii" type="Float64">
-0.0243061 -0.0151036 -0.0235439 -0.010722 -0.0235439 -0.010722 -0.0243061 -0.0151036 -0.0117841 -0.0115491 0.0058578 0.00690217 0.0058578 0.00690217 -0.0117841 -0.0115491 -0.0101861 -0.00780511 0.0125244 0.0163056 0.0125244 0.0163056 -0.0101861 -0.00780511 -0.0106483 -0.0244404 -0.00398927 -0.0224862 -0.00398927 -0.0224862 -0.0106483 -0.0244404 -0.037854 -0.0388294 -0.0389011 -0.0388621 -0.0388797 -0.0388797 -0.0388621 -0.0389011 -0.0388294 -0.037854 -0.041143 -0.0384989 -0.0389223 -0.0388651 -0.0388839 -0.0388839 -0.0388651 -0.0389223 -0.0384989 -0.041143 -0.0203433 -0.0189184 -0.0187793 -0.0187475 -0.0187542 -0.0187542 -0.0187475 -0.0187793 -0.0189184 -0.0203433 -0.0211247 -0.0188384 -0.0187791 -0.0187532 -0.0187582 -0.0187582 -0.0187532 -0.0187791 -0.0188384 -0.0211247 -0.0133513 -0.0114048 -0.0111673 -0.011137 -0.0111395 -0.0111395 -0.011137 -0.0111673 -0.0114048 -0.0133513 -0.0141486 -0.011341 -0.0111752 -0.0111418 -0.011144 -0.011144 -0.0111418 -0.0111752 -0.011341 -0.0141486 -0.0461465 -0.0431247 -0.0435774 -0.0435005 -0.0435149 -0.0435149 -0.0435005 -0.0435774 -0.0431247 -0.0461465 -0.0425123 -0.0434906 -0.0435688 -0.0435056 -0.0435202 -0.0435202 -0.0435056 -0.0435688 -0.0434906 -0.0425123 -0.041028 -0.0380694 -0.0379548 -0.0379382 -0.0379885 -0.03804 -0.0380579 -0.038233 -0.0382841 -0.0441563 -0.0407896 -0.0383249 -0.0379786 -0.0379845 -0.0380348 -0.0380803 -0.038128 -0.0381687 -0.0385843 -0.0408465 -0.0407896 -0.0383249 -0.0379786 -0.0379845 -0.0380348 -0.0380803 -0.038128 -0.0381687 -0.0385843 -0.0408465 -0.041028 -0.0380694 -0.0379548 -0.0379382 -0.0379885 -0.03804 -0.0380579 -0.038233 -0.0382841 -0.0441563 -0.0483222 -0.0418439 -0.04194 -0.0418153 -0.0418665 -0.0418899 -0.0418737 -0.042062 -0.0419423 -0.0492675 -0.0445305 -0.0423617 -0.0418649 -0.0418891 -0.0419111 -0.0419324 -0.0419547 -0.0419591 -0.0424928 -0.0447247 -0.0445305 -0.0423617 -0.0418649 -0.0418891 -0.0419111 -0.0419324 -0.0419547 -0.0419591 -0.0424928 -0.0447247 -0.0483222 -0.0418439 -0.04194 -0.0418153 -0.0418665 -0.0418899 -0.0418737 -0.042062 -0.0419423 -0.0492675 -0.0471834 -0.0432033 -0.0433015 -0.0430715 -0.0430264 -0.0429198 -0.0428105 -0.0427264 -0.0428213 -0.0443719 -0.0445249 -0.0438101 -0.0432055 -0.0432215 -0.0431135 -0.043025 -0.0429076 -0.0427964 -0.0428134 -0.0442105 -0.0445249 -0.0438101 -0.0432055 -0.0432215 -0.0431135 -0.043025 -0.0429076 -0.0427964 -0.0428134 -0.0442105 -0.0471834 -0.0432033 -0.0433015 -0.0430715 -0.0430264 -0.0429198 -0.0428105 -0.0427264 -0.0428213 -0.0443719 
</DataArray>
<DataArray Name="Strain_12" format="ascii" type="Float64">