<?xml version="1.0"?>
<VTKFile byte_order="LittleEndian" type="UnstructuredGrid" version="0.1">
<UnstructuredGrid>
<Piece NumberOfCells="232" NumberOfPoints="918">
<PointData>
<DataArray Name="Warping_X" format="ascii" type="Float64">
-0.149984 -0.152451 -0.150439 -0.144217 -0.148128 -0.145106 -0.144656 -0.147997 -0.148244 0.145106 0.144217 0.144656 0.152451 0.148128 0.149984 0.150439 0.147997 0.148244 -0.0852727 -0.0824547 -0.0831264 -0.0803404 -0.0809411 -0.0812688 -0.0808072 -0.0838328 -0.0823514 0.0812688 0.0803404 0.0808072 0.0824547 0.0809411 0.0852727 0.0831264 0.0838328 0.0823514 0.012691 0.0159997 0.0140746 0.013813 0.0152834 0.0126481 0.0133069 0.012102 0.0137076 -0.0126481 -0.013813 -0.0133069 -0.0159997 -0.0152834 -0.012691 -0.0140746 -0.012102 -0.0137076 0.191624 0.185219 0.186198 0.179873 0.183372 0.176729 0.178829 0.183919 0.183665 -0.176729 -0.179873 -0.178829 -0.185219 -0.183372 -0.191624 -0.186198 -0.183919 -0.183665 -0.116054 -0.0869906 -0.0580484 -0.0290348 -5.67327e-14 0.0290348 0.0580484 0.0869906 0.116054 -0.116417 -0.0874133 -0.058345 -0.0291847 -5.66142e-14 0.0291847 0.058345 0.0874133 0.116417 -0.116208 -0.0872014 -0.0581941 -0.0291092 -5.66473e-14 0.0291092 0.0581941 0.0872014 0.116208 -0.0647887 -0.0485864 -0.0324405 -0.0162326 -1.13051e-14 0.0162326 0.0324405 0.0485864 0.0647887 -0.0651571 -0.0490036 -0.0327303 -0.0163786 -1.11409e-14 0.0163786 0.0327303 0.0490036 0.0651571 -0.0649605 -0.0487939 -0.0325835 -0.016305 -1.11955e-14 0.016305 0.0325835 0.0487939 0.0649605 0.0107364 0.00801365 0.00530559 0.00263829 4.66915e-15 -0.00263829 -0.00530559 -0.00801365 -0.0107364 0.0104161 0.00761318 0.00502475 0.0024966 5.11704e-15 -0.0024966 -0.00502475 -0.00761318 -0.0104161 0.0105791 0.00781799 0.00516634 0.00256826 4.90046e-15 -0.00256826 -0.00516634 -0.00781799 -0.0105791 0.143387 0.107527 0.0716895 0.0358271 5.60015e-14 -0.0358271 -0.0716895 -0.107527 -0.143387 0.143425 0.1072 0.0714322 0.0356946 5.65685e-14 -0.0356946 -0.0714322 -0.1072 -0.143425 0.143455 0.107381 0.0715625 0.0357621 5.62886e-14 -0.0357621 -0.0715625 -0.107381 -0.143455 0.148028 0.140732 0.134027 0.127298 0.12054 0.113729 0.106871 0.0999659 0.0931229 0.135957 0.130689 0.124721 0.118688 0.112577 0.106412 0.10019 0.093887 0.0873804 0.141943 0.135698 0.129371 0.122991 0.116557 0.110069 0.103531 0.0969401 0.0903457 -0.135957 -0.130689 -0.124721 -0.118688 -0.112577 -0.106412 -0.10019 -0.093887 -0.0873804 -0.148028 -0.140732 -0.134027 -0.127298 -0.12054 -0.113729 -0.106871 -0.0999659 -0.0931229 -0.141943 -0.135698 -0.129371 -0.122991 -0.116557 -0.110069 -0.103531 -0.0969401 -0.0903457 0.0742999 0.0645035 0.0549493 0.0453418 0.0356906 0.0259853 0.01622 0.00640407 -0.00364433 0.0698163 0.0612603 0.0523707 0.0434493 0.0344621 0.0254207 0.0163322 0.0071617 -0.001912 0.0719707 0.0628646 0.053656 0.0443934 0.0350746 0.0257016 0.0162764 0.00679693 -0.00268398 -0.0698163 -0.0612603 -0.0523707 -0.0434493 -0.0344621 -0.0254207 -0.0163322 -0.0071617 0.001912 -0.0742999 -0.0645035 -0.0549493 -0.0453418 -0.0356906 -0.0259853 -0.01622 -0.00640407 0.00364433 -0.0719707 -0.0628646 -0.053656 -0.0443934 -0.0350746 -0.0257016 -0.0162764 -0.00679693 0.00268398 -0.0322326 -0.0500569 -0.0675433 -0.0852598 -0.10307 -0.120982 -0.139104 -0.157034 -0.176169 -0.0307097 -0.0459342 -0.0616953 -0.077432 -0.0932941 -0.109275 -0.125262 -0.141681 -0.157106 -0.0315397 -0.0480085 -0.0646223 -0.0813472 -0.0981831 -0.115129 -0.132183 -0.149348 -0.166586 0.0307097 0.0459342 0.0616953 0.077432 0.0932941 0.109275 0.125262 0.141681 0.157106 0.0322326 0.0500569 0.0675433 0.0852598 0.10307 0.120982 0.139104 0.157034 0.176169 0.0315397 0.0480085 0.0646223 0.0813472 0.0981831 0.115129 0.132183 0.149348 0.166586 -0.149055 -0.148688 -0.150149 -0.150315 -0.141915 -0.149503 -0.146067 -0.144603 -0.131039 -0.14829 -0.148492 -0.145136 -0.14499 -0.14701 -0.132171 -0.14708 -0.131533 -0.148457 0.14499 0.14701 0.132171 0.144603 0.146067 0.131039 0.14829 0.14708 0.131533 0.150315 0.150149 0.141915 0.148492 0.145136 0.149055 0.148688 0.149503 0.148457 -0.0835155 -0.0845587 -0.0843346 -0.0821553 -0.0816829 -0.0741441 -0.0828902 -0.0805435 -0.0806382 -0.0727709 -0.0791712 -0.0817689 -0.0765757 -0.0811119 -0.0826437 -0.0739128 -0.0893415 -0.0817979 -0.0733139 -0.0831835 -0.0869868 0.0811119 0.0826437 0.0739128 0.0893415 0.0806382 0.0805435 0.0727709 0.0791712 0.0817979 0.0733139 0.0816829 0.0821553 0.0741441 0.0817689 0.0765757 0.0835155 0.0845587 0.0843346 0.0828902 0.0831835 0.0869868 0.0131874 0.0123616 0.00820088 0.0147333 0.0156558 0.0241509 0.013895 0.0146 0.0136003 0.0130856 0.0223005 0.0145369 0.0232976 0.0130037 0.0122862 0.0119354 0.00704206 0.0136024 0.0124865 0.0129645 0.00751474 -0.0130037 -0.0122862 -0.0119354 -0.00704206 -0.0136003 -0.0146 -0.0130856 -0.0223005 -0.0136024 -0.0124865 -0.0156558 -0.0147333 -0.0241509 -0.0145369 -0.0232976 -0.0131874 -0.0123616 -0.00820088 -0.013895 -0.0129645 -0.00751474 0.186704 0.187825 0.169395 0.183879 0.183755 0.185184 0.182403 0.179565 0.163496 0.183913 0.178111 0.180147 0.162151 0.181323 0.182164 0.162792 0.18417 0.175334 -0.178111 -0.180147 -0.162151 -0.181323 -0.179565 -0.182403 -0.163496 -0.182164 -0.162792 -0.183755 -0.183879 -0.183913 -0.186704 -0.187825 -0.169395 -0.185184 -0.18417 -0.175334 -0.1019 -0.116108 -0.0729756 -0.0871017 -0.0437889 -0.0581198 -0.0146057 -0.0290723 0.0146057 -5.66902e-14 0.0437889 0.0290723 0.0729756 0.0581198 0.1019 0.0871017 0.116108 -0.101197 -0.116273 -0.0724935 -0.0873168 -0.0435033 -0.058267 -0.0145105 -0.0291475 0.0145105 -5.66381e-14 0.0435033 0.0291475 0.0724935 0.058267 0.101197 0.0873168 0.116273 -0.101556 -0.0727318 -0.0436462 -0.0145578 0.0145578 0.0436462 0.0727318 0.101556 -0.0571571 -0.0648591 -0.0409418 -0.0486944 -0.0245817 -0.032511 -0.00820085 -0.016269 0.00820085 -1.1251e-14 0.0245817 0.016269 0.0409418 0.032511 0.0571571 0.0486944 0.0648591 -0.0564713 -0.065041 -0.0404732 -0.0489025 -0.0243041 -0.0326557 -0.00810829 -0.016342 0.00810829 -1.11682e-14 0.0243041 0.016342 0.0404732 0.0326557 0.0564713 0.0489025 0.065041 -0.0568168 -0.040706 -0.0244427 -0.00815438 0.00815438 0.0244427 0.040706 0.0568168 0.00877478 0.0106514 0.00627488 0.00791669 0.00372654 0.00523578 0.00123955 0.00260335 -0.00123955 4.78362e-15 -0.00372654 -0.00260335 -0.00627488 -0.00523578 -0.00877478 -0.00791669 -0.0106514 0.00944709 0.0104924 0.0067308 0.00771737 0.00399621 0.00509537 0.00132943 0.00253254 -0.00132943 5.00965e-15 -0.00399621 -0.00253254 -0.0067308 -0.00509537 -0.00944709 -0.00771737 -0.0104924 0.00911716 0.00650265 0.00386195 0.00128453 -0.00128453 -0.00386195 -0.00650265 -0.00911716 0.124796 0.143341 0.0892959 0.107474 0.0535198 0.0716209 0.017842 0.0357959 -0.017842 5.61506e-14 -0.0535198 -0.0357959 -0.0892959 -0.0716209 -0.124796 -0.107474 -0.143341 0.125475 0.143391 0.0897336 0.107304 0.0537746 0.0714944 0.0179267 0.0357291 -0.0179267 5.64319e-14 -0.0537746 -0.0357291 -0.0897336 -0.0714944 -0.125475 -0.107304 -0.143391 0.12516 0.0895139 0.0536485 0.0178842 -0.0178842 -0.0536485 -0.0895139 -0.12516 0.13485 0.145005 0.128301 0.138232 0.122073 0.131698 0.115846 0.125145 0.109584 0.118548 0.103277 0.1119 0.0969329 0.1052 0.0906277 0.0984584 0.0917338 0.142832 0.138959 0.136784 0.133169 0.130299 0.127049 0.123711 0.120838 0.117052 0.114567 0.110332 0.108241 0.103536 0.101859 0.0965868 0.0954154 0.0888325 0.138843 0.132542 0.126186 0.119778 0.113317 0.106804 0.100237 0.0936298 -0.142832 -0.138959 -0.136784 -0.133169 -0.130299 -0.127049 -0.123711 -0.120838 -0.117052 -0.114567 -0.110332 -0.108241 -0.103536 -0.101859 -0.0965868 -0.0954154 -0.0888325 -0.13485 -0.145005 -0.128301 -0.138232 -0.122073 -0.131698 -0.115846 -0.125145 -0.109584 -0.118548 -0.103277 -0.1119 -0.0969329 -0.1052 -0.0906277 -0.0984584 -0.0917338 -0.138843 -0.132542 -0.126186 -0.119778 -0.113317 -0.106804 -0.100237 -0.0936298 0.0650437 0.0731341 0.0559458 0.0636916 0.0469315 0.0543015 0.0378809 0.0448679 0.0287845 0.0353824 0.0196361 0.0258431 0.0104319 0.0162487 0.00111537 0.00659673 -0.00316416 0.0698713 0.0709314 0.060596 0.0620453 0.0511298 0.0530168 0.0415976 0.0439201 0.0320019 0.0347682 0.0223508 0.0255619 0.0126412 0.016301 0.00293354 0.00699265 -0.0023362 0.0674425 0.058268 0.0490295 0.0397384 0.0303923 0.0209929 0.0115379 0.00204024 -0.0698713 -0.0709314 -0.060596 -0.0620453 -0.0511298 -0.0530168 -0.0415976 -0.0439201 -0.0320019 -0.0347682 -0.0223508 -0.0255619 -0.0126412 -0.016301 -0.00293354 -0.00699265 0.0023362 -0.0650437 -0.0731341 -0.0559458 -0.0636916 -0.0469315 -0.0543015 -0.0378809 -0.0448679 -0.0287845 -0.0353824 -0.0196361 -0.0258431 -0.0104319 -0.0162487 -0.00111537 -0.00659673 0.00316416 -0.0674425 -0.058268 -0.0490295 -0.0397384 -0.0303923 -0.0209929 -0.0115379 -0.00204024 -0.039603 -0.0318929 -0.0552018 -0.0490295 -0.0709295 -0.0660844 -0.0867478 -0.0833032 -0.102662 -0.100627 -0.118671 -0.118057 -0.134823 -0.13564 -0.15127 -0.153201 -0.171372 -0.0398677 -0.0310985 -0.057402 -0.0469796 -0.0750213 -0.0631561 -0.0927652 -0.0793903 -0.110633 -0.095739 -0.128625 -0.1122 -0.146698 -0.128728 -0.16469 -0.145496 -0.161887 -0.0397481 -0.0563044 -0.0729762 -0.089757 -0.106648 -0.123648 -0.14076 -0.157975 0.0398677 0.0310985 0.057402 0.0469796 0.0750213 0.0631561 0.0927652 0.0793903 0.110633 0.095739 0.128625 0.1122 0.146698 0.128728 0.16469 0.145496 0.161887 0.039603 0.0318929 0.0552018 0.0490295 0.0709295 0.0660844 0.0867478 0.0833032 0.102662 0.100627 0.118671 0.118057 0.134823 0.13564 0.15127 0.153201 0.171372 0.0397481 0.0563044 0.0729762 0.089757 0.106648 0.123648 0.14076 0.157975 
</DataArray>
<DataArray Name="Warping_Y" format="ascii" type="Float64">
0.131254 0.134658 0.132373 0.134136 0.133947 0.131625 0.132865 0.130439 0.132316 0.131625 0.134136 0.132865 0.134658 0.133947 0.131254 0.132373 0.130439 0.132316 -0.035331 -0.0345712 -0.0352415 -0.0350889 -0.0351076 -0.0358973 -0.0350811 -0.0353605 -0.0351548 -0.0358973 -0.0350889 -0.0350811 -0.0345712 -0.0351076 -0.035331 -0.0352415 -0.0353605 -0.0351548 -0.126517 -0.128094 -0.127692 -0.128941 -0.128652 -0.127247 -0.12769 -0.126795 -0.127667 -0.127247 -0.128941 -0.12769 -0.128094 -0.128652 -0.126517 -0.127692 -0.126795 -0.127667 0.170975 0.165638 0.167168 0.16559 0.164208 0.170024 0.167366 0.170157 0.166951 0.170024 0.16559 0.167366 0.165638 0.164208 0.170975 0.167168 0.170157 0.166951 0.131936 0.130373 0.129536 0.128978 0.128802 0.128978 0.129536 0.130373 0.131936 0.130533 0.129536 0.128585 0.128054 0.127868 0.128054 0.128585 0.129536 0.130533 0.131239 0.129911 0.129002 0.128454 0.128273 0.128454 0.129002 0.129911 0.131239 -0.0368233 -0.0383665 -0.0393561 -0.0399811 -0.0401844 -0.0399811 -0.0393561 -0.0383665 -0.0368233 -0.0375377 -0.0388443 -0.0398866 -0.0405 -0.0407082 -0.0405 -0.0398866 -0.0388443 -0.0375377 -0.0371098 -0.0386358 -0.0396749 -0.0402981 -0.0405045 -0.0402981 -0.0396749 -0.0386358 -0.0371098 -0.130195 -0.131661 -0.132829 -0.133519 -0.133752 -0.133519 -0.132829 -0.131661 -0.130195 -0.129875 -0.131618 -0.132737 -0.13344 -0.13367 -0.13344 -0.132737 -0.131618 -0.129875 -0.129954 -0.131664 -0.132832 -0.133533 -0.133765 -0.133533 -0.132832 -0.131664 -0.129954 0.163974 0.16239 0.160906 0.160079 0.15979 0.160079 0.160906 0.16239 0.163974 0.16585 0.163394 0.162081 0.161211 0.160936 0.161211 0.162081 0.163394 0.16585 0.164948 0.162879 0.161456 0.160601 0.160318 0.160601 0.161456 0.162879 0.164948 0.118745 0.0990591 0.0793393 0.0602661 0.0419677 0.0244899 0.00786367 -0.0078631 -0.022514 0.117888 0.0981531 0.07843 0.0593538 0.0410529 0.0235721 0.00694225 -0.0087909 -0.023419 0.118165 0.0985829 0.0788879 0.059821 0.0415231 0.0240451 0.00741963 -0.0082997 -0.0228935 0.117888 0.0981531 0.07843 0.0593538 0.0410529 0.0235721 0.00694225 -0.0087909 -0.023419 0.118745 0.0990591 0.0793393 0.0602661 0.0419677 0.0244899 0.00786367 -0.0078631 -0.022514 0.118165 0.0985829 0.0788879 0.059821 0.0415231 0.0240451 0.00741963 -0.0082997 -0.0228935 -0.0469097 -0.0597945 -0.0718825 -0.0829318 -0.0928903 -0.101728 -0.109425 -0.115974 -0.121436 -0.0478538 -0.0607886 -0.0728784 -0.0839301 -0.093891 -0.102732 -0.110433 -0.11699 -0.122436 -0.0474481 -0.060289 -0.0723669 -0.0834137 -0.0933726 -0.102212 -0.109911 -0.116462 -0.121924 -0.0478538 -0.0607886 -0.0728784 -0.0839301 -0.093891 -0.102732 -0.110433 -0.11699 -0.122436 -0.0469097 -0.0597945 -0.0718825 -0.0829318 -0.0928903 -0.101728 -0.109425 -0.115974 -0.121436 -0.0474481 -0.060289 -0.0723669 -0.0834137 -0.0933726 -0.102212 -0.109911 -0.116462 -0.121924 -0.137857 -0.139376 -0.131253 -0.114107 -0.0876054 -0.0516542 -0.00597026 0.0489183 0.113015 -0.139013 -0.140577 -0.132462 -0.11532 -0.0888211 -0.0528735 -0.00719274 0.0476934 0.11182 -0.138434 -0.139938 -0.131818 -0.114671 -0.0881698 -0.0522191 -0.0065421 0.0483335 0.112331 -0.139013 -0.140577 -0.132462 -0.11532 -0.0888211 -0.0528735 -0.00719274 0.0476934 0.11182 -0.137857 -0.139376 -0.131253 -0.114107 -0.0876054 -0.0516542 -0.00597026 0.0489183 0.113015 -0.138434 -0.139938 -0.131818 -0.114671 -0.0881698 -0.0522191 -0.0065421 0.0483335 0.112331 0.131471 0.130834 0.133587 0.134255 0.127409 0.132374 0.133998 0.133545 0.137444 0.128708 0.133483 0.127998 0.132351 0.130921 0.126288 0.132561 0.131938 0.131656 0.132351 0.130921 0.126288 0.133545 0.133998 0.137444 0.128708 0.132561 0.131938 0.134255 0.133587 0.127409 0.133483 0.127998 0.131471 0.130834 0.132374 0.131656 -0.0357462 -0.035327 -0.0305167 -0.0351242 -0.0348713 -0.0408825 -0.0351813 -0.0351218 -0.0350491 -0.0334091 -0.0394711 -0.0350739 -0.040231 -0.0353961 -0.0356039 -0.0394984 -0.0292006 -0.0351634 -0.0362967 -0.0353879 -0.0298036 -0.0353961 -0.0356039 -0.0394984 -0.0292006 -0.0350491 -0.0351218 -0.0334091 -0.0394711 -0.0351634 -0.0362967 -0.0348713 -0.0351242 -0.0408825 -0.0350739 -0.040231 -0.0357462 -0.035327 -0.0305167 -0.0351813 -0.0353879 -0.0298036 -0.127419 -0.126649 -0.124443 -0.128365 -0.128389 -0.133853 -0.127652 -0.128807 -0.128237 -0.129878 -0.132506 -0.128235 -0.133205 -0.127423 -0.127006 -0.12853 -0.123025 -0.127716 -0.129035 -0.127279 -0.123734 -0.127423 -0.127006 -0.12853 -0.123025 -0.128237 -0.128807 -0.129878 -0.132506 -0.127716 -0.129035 -0.128389 -0.128365 -0.133853 -0.128235 -0.133205 -0.127419 -0.126649 -0.124443 -0.127652 -0.127279 -0.123734 0.169715 0.170532 0.144944 0.166002 0.164927 0.167136 0.164736 0.166587 0.158889 0.166007 0.168764 0.170066 0.172906 0.146329 0.167154 0.16602 0.169224 0.145601 0.168764 0.170066 0.172906 0.146329 0.166587 0.164736 0.158889 0.167154 0.16602 0.164927 0.166002 0.166007 0.169715 0.170532 0.144944 0.167136 0.169224 0.145601 0.125231 0.131521 0.124101 0.130159 0.123376 0.129261 0.123007 0.128716 0.123007 0.128535 0.123376 0.128716 0.124101 0.129261 0.125231 0.130159 0.131521 0.135808 0.130891 0.134781 0.129715 0.134065 0.128793 0.133709 0.128251 0.133709 0.128069 0.134065 0.128251 0.134781 0.128793 0.135808 0.129715 0.130891 0.130516 0.129416 0.128691 0.128328 0.128328 0.128691 0.129416 0.130516 -0.0409106 -0.0370126 -0.0421632 -0.0384907 -0.042992 -0.0395204 -0.0434109 -0.04014 -0.0434109 -0.0403464 -0.042992 -0.04014 -0.0421632 -0.0395204 -0.0409106 -0.0384907 -0.0370126 -0.035003 -0.0373339 -0.0361971 -0.0387415 -0.0370094 -0.039782 -0.0374166 -0.0404005 -0.0374166 -0.0406076 -0.0370094 -0.0404005 -0.0361971 -0.039782 -0.035003 -0.0387415 -0.0373339 -0.0379477 -0.039202 -0.0400278 -0.0404418 -0.0404418 -0.0400278 -0.039202 -0.0379477 -0.13042 -0.130085 -0.13179 -0.131664 -0.132727 -0.132831 -0.133196 -0.133527 -0.133196 -0.133759 -0.132727 -0.133527 -0.13179 -0.132831 -0.13042 -0.131664 -0.130085 -0.131391 -0.12996 -0.132772 -0.13163 -0.133681 -0.132789 -0.134141 -0.133486 -0.134141 -0.133719 -0.133681 -0.133486 -0.132772 -0.132789 -0.131391 -0.13163 -0.12996 -0.130891 -0.1323 -0.133229 -0.133694 -0.133694 -0.133229 -0.1323 -0.130891 0.170346 0.164462 0.16871 0.162625 0.16757 0.161184 0.167 0.160339 0.167 0.160055 0.16757 0.160339 0.16871 0.161184 0.170346 0.162625 0.164462 0.157236 0.165312 0.155519 0.163163 0.154413 0.161761 0.153851 0.160908 0.153851 0.160626 0.154413 0.160908 0.155519 0.161761 0.157236 0.163163 0.165312 0.16382 0.162103 0.160972 0.160404 0.160404 0.160972 0.162103 0.16382 0.10738 0.118454 0.0880068 0.0988124 0.0686112 0.0791119 0.049935 0.0600407 0.0320433 0.041743 0.0149898 0.0242652 -0.00118346 0.0076388 -0.0163048 -0.0080814 -0.0227111 0.108569 0.118024 0.0891899 0.0983599 0.0697946 0.0786571 0.051122 0.0595845 0.0332337 0.0412856 0.0161835 0.0238063 1.50251e-05 0.00717823 -0.0150962 -0.00854535 -0.0231603 0.108004 0.0886158 0.0692227 0.0505483 0.0326586 0.0156071 -0.000563159 -0.0156786 0.108569 0.118024 0.0891899 0.0983599 0.0697946 0.0786571 0.051122 0.0595845 0.0332337 0.0412856 0.0161835 0.0238063 1.50251e-05 0.00717823 -0.0150962 -0.00854535 -0.0231603 0.10738 0.118454 0.0880068 0.0988124 0.0686112 0.0791119 0.049935 0.0600407 0.0320433 0.041743 0.0149898 0.0242652 -0.00118346 0.0076388 -0.0163048 -0.0080814 -0.0227111 0.108004 0.0886158 0.0692227 0.0505483 0.0326586 0.0156071 -0.000563159 -0.0156786 -0.0547889 -0.0471756 -0.0671178 -0.0600476 -0.0786979 -0.0721261 -0.0891989 -0.0831751 -0.0986008 -0.0931335 -0.106876 -0.101972 -0.113993 -0.10967 -0.120096 -0.11622 -0.121685 -0.0535028 -0.0476471 -0.0658378 -0.0605443 -0.0774171 -0.0726241 -0.0879144 -0.0836743 -0.0973129 -0.0936339 -0.105585 -0.102474 -0.112697 -0.110174 -0.118791 -0.116728 -0.122183 -0.0541235 -0.0664586 -0.0780362 -0.0885353 -0.0979353 -0.106209 -0.113324 -0.119416 -0.0535028 -0.0476471 -0.0658378 -0.0605443 -0.0774171 -0.0726241 -0.0879144 -0.0836743 -0.0973129 -0.0936339 -0.105585 -0.102474 -0.112697 -0.110174 -0.118791 -0.116728 -0.122183 -0.0547889 -0.0471756 -0.0671178 -0.0600476 -0.0786979 -0.0721261 -0.0891989 -0.0831751 -0.0986008 -0.0931335 -0.106876 -0.101972 -0.113993 -0.10967 -0.120096 -0.11622 -0.121685 -0.0541235 -0.0664586 -0.0780362 -0.0885353 -0.0979353 -0.106209 -0.113324 -0.119416 -0.141392 -0.138142 -0.137538 -0.13966 -0.125062 -0.131536 -0.103224 -0.11439 -0.071992 -0.0878886 -0.0312994 -0.0519379 0.0193977 -0.00625672 0.0777537 0.0486225 0.112673 -0.140104 -0.13872 -0.136253 -0.14026 -0.123775 -0.13214 -0.101933 -0.114997 -0.0706978 -0.0884965 -0.0300016 -0.0525475 0.0207007 -0.00686815 0.0790657 0.0480108 0.112072 -0.14072 -0.136869 -0.124389 -0.10255 -0.0713158 -0.03062 0.0200737 0.0784418 -0.140104 -0.13872 -0.136253 -0.14026 -0.123775 -0.13214 -0.101933 -0.114997 -0.0706978 -0.0884965 -0.0300016 -0.0525475 0.0207007 -0.00686815 0.0790657 0.0480108 0.112072 -0.141392 -0.138142 -0.137538 -0.13966 -0.125062 -0.131536 -0.103224 -0.11439 -0.071992 -0.0878886 -0.0312994 -0.0519379 0.0193977 -0.00625672 0.0777537 0.0486225 0.112673 -0.14072 -0.136869 -0.124389 -0.10255 -0.0713158 -0.03062 0.0200737 0.0784418 
</DataArray>
<DataArray Name="Warping_Z" format="ascii" type="Float64">
0 0 0 0 0 0 0 0 0 0 0 0 0 0 0 0 0 0 0 0 0 0 0 0 0 0 0 0 0 0 0 0 0 0 0 0 0 0 0 0 0 0 0 0 0 0 0 0 0 0 0 0 0 0 0 0 0 0 0 0 0 0 0 0 0 0 0 0 0 0 0 0 0 0 0 0 0 0 0 0 0 0 0 0 0 0 0 0 0 0 0 0 0 0 0 0 0 0 0 0 0 0 0 0 0 0 0 0 0 0 0 0 0 0 0 0 0 0 0 0 0 0 0 0 0 0 0 0 0 0 0 0 0 0 0 0 0 0 0 0 0 0 0 0 0 0 0 0 0 0 0 0 0 0 0 0 0 0 0 0 0 0 0 0 0 0 0 0 0 0 0 0 0 0 0 0 0 0 0 0 0 0 0 0 0 0 0 0 0 0 0 0 0 0 0 0 0 0 0 0 0 0 0 0 0 0 0 0 0 0 0 0 0 0 0 0 0 0 0 0 0 0 0 0 0 0 0 0 0 0 0 0 0 0 0 0 0 0 0 0 0 0 0 0 0 0 0 0 0 0 0 0 0 0 0 0 0 0 0 0 0 0 0 0 0 0 0 0 0 0 0 0 0 0 0 0 0 0 0 0 0 0 0 0 0 0 0 0 0 0 0 0 0 0 0 0 0 0 0 0 0 0 0 0 0 0 0 0 0 0 0 0 0 0 0 0 0 0 0 0 0 0 0 0 0 0 0 0 0 0 0 0 0 0 0 0 0 0 0 0 0 0 0 0 0 0 0 0 0 0 0 0 0 0 0 0 0 0 0 0 0 0 0 0 0 0 0 0 0 0 0 0 0 0 0 0 0 0 0 0 0 0 0 0 0 0 0 0 0 0 0 0 0 0 0 0 0 0 0 0 0 0 0 0 0 0 0 0 0 0 0 0 0 0 0 0 0 0 0 0 0 0 0 0 0 0 0 0 0 0 0 0 0 0 0 0 0 0 0 0 0 0 0 0 0 0 0 0 0 0 0 0 0 0 0 0 0 0 0 0 0 0 0 0 0 0 0 0 0 0 0 0 0 0 0 0 0 0 0 0 0 0 0 0 0 0 0 0 0 0 0 0 0 0 0 0 0 0 0 0 0 0 0 0 0 0 0 0 0 0 0 0 0 0 0 0 0 0 0 0 0 0 0 0 0 0 0 0 0 0 0 0 0 0 0 0 0 0 0 0 0 0 0 0 0 0 0 0 0 0 0 0 0 0 0 0 0 0 0 0 0 0 0 0 0 0 0 0 0 0 0 0 0 0 0 0 0 0 0 0 0 0 0 0 0 0 0 0 0 0 0 0 0 0 0 0 0 0 0 0 0 0 0 0 0 0 0 0 0 0 0 0 0 0 0 0 0 0 0 0 0 0 0 0 0 0 0 0 0 0 0 0 0 0 0 0 0 0 0 0 0 0 0 0 0 0 0 0 0 0 0 0 0 0 0 0 0 0 0 0 0 0 0 0 0 0 0 0 0 0 0 0 0 0 0 0 0 0 0 0 0 0 0 0 0 0 0 0 0 0 0 0 0 0 0 0 0 0 0 0 0 0 0 0 0 0 0 0 0 0 0 0 0 0 0 0 0 0 0 0 0 0 0 0 0 0 0 0 0 0 0 0 0 0 0 0 0 0 0 0 0 0 0 0 0 0 0 0 0 0 0 0 0 0 0 0 0 0 0 0 0 0 0 0 0 0 0 0 0 0 0 0 0 0 0 0 0 0 0 0 0 0 0 0 0 0 0 0 0 0 0 0 0 0 0 0 0 0 0 0 0 0 0 0 0 0 0 0 0 0 0 0 0 0 0 0 0 0 0 0 0 0 0 0 0 0 0 0 0 0 0 0 0 0 0 0 0 0 0 0 0 0 0 0 0 0 0 0 0 0 0 0 0 0 0 0 0 0 0 0 0 0 0 0 0 0 0 0 0 0 0 0 0 0 0 0 0 0 0 0 0 0 0 0 0 0 0 0 0 0 0 0 0 0 0 0 0 0 0 0 0 0 0 0 0 0 0 0 0 0 0 0 0 0 0 0 0 0 
</DataArray>
</PointData>
<CellData>
<DataArray Name="MaterialId" format="ascii" type="Float64">
3 3 3 3 3 3 3 3 3 3 3 3 3 3 3 3 3 3 3 3 3 3 3 3 3 3 3 3 3 3 3 3 1 1 1 1 1 1 1 1 1 1 1 1 1 1 1 1 1 1 1 1 1 1 1 1 1 1 1 1 1 1 1 1 1 1 1 1 1 1 1 1 1 1 1 1 1 1 1 1 1 1 1 1 1 1 1 1 1 1 1 1 1 1 1 1 1 1 1 1 1 1 1 1 1 1 1 1 1 1 1 1 3 3 3 3 3 3 3 3 3 3 3 3 3 3 3 3 3 3 3 3 3 3 3 3 3 3 3 3 3 3 3 3 3 3 3 3 3 3 3 3 3 3 3 3 3 3 3 3 3 3 3 3 3 3 3 3 3 3 3 3 3 3 3 3 3 3 3 3 3 3 3 3 3 3 3 3 3 3 3 3 3 3 3 3 3 3 3 3 3 3 3 3 3 3 3 3 3 3 3 3 3 3 3 3 3 3 3 3 3 3 3 3 3 3 3 3 3 3 3 3 
</DataArray>
<DataArray Name="FiberAngle" format="ascii" type="Float64">
-45 -45 -45 -45 -45 -45 -45 -45 -45 -45 -45 -45 -45 -45 -45 -45 -45 -45 -45 -45 -45 -45 -45 -45 -45 -45 -45 -45 -45 -45 -45 -45 0 0 0 0 0 0 0 0 0 0 0 0 0 0 0 0 0 0 0 0 0 0 0 0 0 0 0 0 0 0 0 0 0 0 0 0 0 0 0 0 0 0 0 0 0 0 0 0 0 0 0 0 0 0 0 0 0 0 0 0 0 0 0 0 0 0 0 0 0 0 0 0 0 0 0 0 0 0 0 0 -45 -45 -45 -45 -45 -45 -45 -45 -45 -45 -45 -45 -45 -45 -45 -45 -45 -45 -45 -45 -45 -45 -45 -45 -45 -45 -45 -45 -45 -45 -45 -45 -45 -45 -45 -45 -45 -45 -45 -45 -45 -45 -45 -45 -45 -45 -45 -45 -45 -45 -45 -45 -45 -45 -45 -45 -45 -45 -45 -45 -45 -45 -45 -45 -45 -45 -45 -45 -45 -45 -45 -45 -45 -45 -45 -45 -45 -45 -45 -45 -45 -45 -45 -45 -45 -45 -45 -45 -45 -45 -45 -45 -45 -45 -45 -45 -45 -45 -45 -45 -45 -45 -45 -45 -45 -45 -45 -45 -45 -45 -45 -45 -45 -45 -45 -45 -45 -45 -45 -45 
</DataArray>
<DataArray Name="Strain_11" format="ascii" type="Float64">
-0.163038 -0.16241 -0.0140257 0.20251 0.0140257 -0.20251 0.163038 0.16241 0.3337 0.241465 0.169153 0.250892 -0.169153 -0.250892 -0.3337 -0.241465 0.306692 0.352145 0.263236 0.199529 -0.263236 -0.199529 -0.306692 -0.352145 -0.52824 -0.285761 0.403395 0.0477078 -0.403395 -0.0477078 0.52824 0.285761 -0.0988283 -0.0716207 -0.0476672 -0.0285852 -0.00946497 0.00946497 0.0285852 0.0476672 0.0716207 0.0988283 -0.127417 -0.0688898 -0.0487575 -0.0285391 -0.00957774 0.00957774 0.0285391 0.0487575 0.0688898 0.127417 -0.108608 -0.0691073 -0.0465533 -0.027737 -0.00921708 0.00921708 0.027737 0.0465533 0.0691073 0.108608 -0.119774 -0.0680489 -0.047157 -0.0277833 -0.00929379 0.00929379 0.0277833 0.047157 0.0680489 0.119774 -0.119823 -0.0659851 -0.0456311 -0.0268511 -0.00898016 0.00898016 0.0268511 0.0456311 0.0659851 0.119823 -0.110214 -0.0684758 -0.0455542 -0.0270815 -0.00899665 0.00899665 0.0270815 0.0455542 0.0684758 0.110214 -0.140865 -0.0630116 -0.0439253 -0.0252211 -0.00849792 0.00849792 0.0252211 0.0439253 0.0630116 0.140865 -0.12818 -0.0729024 -0.0436041 -0.0257477 -0.00845424 0.00845424 0.0257477 0.0436041 0.0729024 0.12818 -0.302479 -0.246386 -0.260424 -0.2643 -0.266855 -0.269195 -0.271574 -0.274184 -0.280123 -0.263355 -0.225965 -0.288198 -0.278072 -0.278825 -0.280736 -0.282911 -0.285087 -0.286876 -0.286155 -0.305322 0.225965 0.288198 0.278072 0.278825 0.280736 0.282911 0.285087 0.286876 0.286155 0.305322 0.302479 0.246386 0.260424 0.2643 0.266855 0.269195 0.271574 0.274184 0.280123 0.263355 -0.400505 -0.37025 -0.376189 -0.379029 -0.381328 -0.383599 -0.385871 -0.387846 -0.388702 -0.414584 -0.356201 -0.393438 -0.391251 -0.393067 -0.395229 -0.397471 -0.399767 -0.402165 -0.406704 -0.383225 0.356201 0.393438 0.391251 0.393067 0.395229 0.397471 0.399767 0.402165 0.406704 0.383225 0.400505 0.37025 0.376189 0.379029 0.381328 0.383599 0.385871 0.387846 0.388702 0.414584 -0.340175 -0.327445 -0.333535 -0.334727 -0.337086 -0.3394 -0.340789 -0.345727 -0.337964 -0.376495 -0.334786 -0.353333 -0.351646 -0.355028 -0.357181 -0.359388 -0.362548 -0.362063 -0.374667 -0.339248 0.334786 0.353333 0.351646 0.355028 0.357181 0.359388 0.362548 0.362063 0.374667 0.339248 0.340175 0.327445 0.333535 0.334727 0.337086 0.3394 0.340789 0.345727 0.337964 0.376495 
</DataArray>
<DataArray Name="Strain_22" format="ascii" type="Float64">
-0.0369725 0.0207376 -0.139012 -0.0123382 0.139012 0.0123382 0.0369725 -0.0207376 -0.0716604 -0.0100636 0.00163044 -0.00495181 -0.00163044 0.00495181 0.0716604 0.0100636 -0.0280209 -0.026103 0.028832 0.000517633 -0.028832 -0.000517633 0.0280209 0.026103 0.0982535 -0.00100236 0.092128 -0.115994 -0.092128 0.115994 -0.0982535 0.00100236 -0.115378 -0.0511309 -0.040083 -0.0235661 -0.00791999 0.00791999 0.0235661 0.040083 0.0511309 0.115378 -0.0360835 -0.0592083 -0.0390454 -0.0236964 -0.00787028 0.00787028 0.0236964 0.0390454 0.0592083 0.0360835 -0.0993397 -0.0612003 -0.0452364 -0.0268933 -0.00900406 0.00900406 0.0268933 0.0452364 0.0612003 0.0993397 -0.0702832 -0.0642644 -0.0447692 -0.0269381 -0.00897398 0.00897398 0.0269381 0.0447692 0.0642644 0.0702832 -0.074907 -0.0725892 -0.0504152 -0.0303106 -0.0101066 0.0101066 0.0303106 0.0504152 0.0725892 0.074907 -0.115726 -0.0686373 -0.050777 -0.0302286 -0.0101068 0.0101068 0.0302286 0.050777 0.0686373 0.115726 -0.0554602 -0.0934352 -0.0609508 -0.0370662 -0.0122916 0.0122916 0.0370662 0.0609508 0.0934352 0.0554602 -0.187005 -0.0798721 -0.0626651 -0.0367447 -0.012359 0.012359 0.0367447 0.0626651 0.0798721 0.187005 0.142024 0.1131 0.114831 0.114375 0.114738 0.115008 0.11528 0.115637 0.116479 0.120607 0.117868 0.124667 0.1218 0.122306 0.12267 0.123074 0.123452 0.124059 0.125239 0.142626 -0.117868 -0.124667 -0.1218 -0.122306 -0.12267 -0.123074 -0.123452 -0.124059 -0.125239 -0.142626 -0.142024 -0.1131 -0.114831 -0.114375 -0.114738 -0.115008 -0.11528 -0.115637 -0.116479 -0.120607 0.151977 0.124131 0.124171 0.123815 0.12418 0.124489 0.124728 0.125379 0.124875 0.141784 0.130286 0.133082 0.131833 0.132345 0.132718 0.1331 0.13349 0.133903 0.136156 0.141845 -0.130286 -0.133082 -0.131833 -0.132345 -0.132718 -0.1331 -0.13349 -0.133903 -0.136156 -0.141845 -0.151977 -0.124131 -0.124171 -0.123815 -0.12418 -0.124489 -0.124728 -0.125379 -0.124875 -0.141784 0.139762 0.123278 0.123297 0.12294 0.123257 0.123585 0.123675 0.125401 0.124782 0.145604 0.129667 0.134384 0.133661 0.134469 0.134859 0.135257 0.13587 0.135212 0.137619 0.131324 -0.129667 -0.134384 -0.133661 -0.134469 -0.134859 -0.135257 -0.13587 -0.135212 -0.137619 -0.131324 -0.139762 -0.123278 -0.123297 -0.12294 -0.123257 -0.123585 -0.123675 -0.125401 -0.124782 -0.145604 
</DataArray>
<DataArray Name="Strain_12" format="ascii" type="Float64">
0.188187 0.044842 -0.365609 -0.490344 -0.365609 -0.490344 0.188187 0.044842 -0.0372629 -0.0152656 -0.326201 -0.217834 -0.326201 -0.217834 -0.0372629 -0.0152656 -0.156078 -0.108151 -0.14999 -0.0308275 -0.14999 -0.0308275 -0.156078 -0.108151 -0.1725 -0.448493 0.629492 0.386068 0.629492 0.386068 -0.1725 -0.448493 0.130575 0.200546 0.189988 0.191281 0.191036 0.191036 0.191281 0.189988 0.200546 0.130575 0.125666 0.203988 0.197218 0.199924 0.199869 0.199869 0.199924 0.197218 0.203988 0.125666 0.100608 0.112725 0.105416 0.105605 0.105495 0.105495 0.105605 0.105416 0.112725 0.100608 0.0663108 0.110237 0.111373 0.113339 0.113528 0.113528 0.113339 0.111373 0.110237 0.0663108 0.0336114 -0.0206999 -0.0195555 -0.0209697 -0.0207612 -0.0207612 -0.0209697 -0.0195555 -0.0206999 0.0336114 -0.0013865 -0.0246236 -0.01457 -0.0140891 -0.0135494 -0.0135494 -0.0140891 -0.01457 -0.0246236 -0.0013865 -0.146408 -0.252356 -0.240089 -0.24323 -0.242747 -0.242747 -0.24323 -0.240089 -0.252356 -0.146408 -0.134592 -0.254164 -0.237474 -0.23809 -0.23722 -0.23722 -0.23809 -0.237474 -0.254164 -0.134592 -0.0489412 -0.0390064 0.00994118 0.0111425 0.00797153 0.00316372 -0.00201392 -0.00921445 -0.0305167 -0.0585758 -0.0283629 -0.0371843 0.00985901 0.0108949 0.00770096 0.00291318 -0.00210974 -0.0081195 -0.0221211 -0.00640622 -0.0283629 -0.0371843 0.00985901 0.0108949 0.00770096 0.00291318 -0.00210974 -0.0081195 -0.0221211 -0.00640622 -0.0489412 -0.0390064 0.00994118 0.0111425 0.00797153 0.00316372 -0.00201392 -0.00921445 -0.0305167 -0.0585758 -0.00277839 -0.0516164 -0.0377327 -0.0403755 -0.0431438 -0.0464387 -0.0492416 -0.0524311 -0.0486421 -0.106388 -0.0263637 -0.0565822 -0.0388337 -0.0407629 -0.0434315 -0.046697 -0.0493956 -0.0517351 -0.0427224 -0.0695967 -0.0263637 -0.0565822 -0.0388337 -0.0407629 -0.0434315 -0.046697 -0.0493956 -0.0517351 -0.0427224 -0.0695967 -0.00277839 -0.0516164 -0.0377327 -0.0403755 -0.0431438 -0.0464387 -0.0492416 -0.0524311 -0.0486421 -0.106388 -0.0049801 -0.055669 -0.0521014 -0.0555397 -0.0552549 -0.0558848 -0.0535628 -0.0560769 -0.0221636 -0.00206338 -0.0304241 -0.0603325 -0.0530263 -0.0558135 -0.0554154 -0.0560165 -0.0536284 -0.0558372 -0.020435 0.0050474 -0.0304241 -0.0603325 -0.0530263 -0.0558135 -0.0554154 -0.0560165 -0.0536284 -0.0558372 -0.020435 0.0050474 -0.0049801 -0.055669 -0.0521014 -0.0555397 -0.0552549 -0.0558848 -0.0535628 -0.0560769 -0.0221636 -0.00206338 
</DataArray>
<DataArray Name="Strain_13" format="ascii" type="Float64">