<?xml version="1.0"?>
<VTKFile byte_order="LittleEndian" type="UnstructuredGrid" version="0.1">
<UnstructuredGrid>
<Piece NumberOfCells="232" NumberOfPoints="918">
<PointData>
<DataArray Name="Warping_X" format="ascii" type="Float64">
-0.215536 -0.208124 -0.212456 -0.206593 -0.209052 -0.211185 -0.207959 -0.215636 -0.212341 0.211185 0.206593 0.207959 0.208124 0.209052 0.215536 0.212456 0.215636 0.212341 -0.0860718 -0.0798464 -0.0832213 -0.0798187 -0.0807435 -0.0857314 -0.0822453 -0.0855625 -0.0831541 0.0857314 0.0798187 0.0822453 0.0798464 0.0807435 0.0860718 0.0832213 0.0855625 0.0831541 0.031749 0.0377912 0.0348878 0.0375652 0.0372227 0.0317873 0.0344507 0.0325121 0.0348015 -0.0317873 -0.0375652 -0.0344507 -0.0377912 -0.0372227 -0.031749 -0.0348878 -0.0325121 -0.0348015 0.270286 0.278565 0.275396 0.272489 0.277983 0.268853 0.269258 0.271066 0.274628 -0.268853 -0.272489 -0.269258 -0.278565 -0.277983 -0.270286 -0.275396 -0.271066 -0.274628 -0.167786 -0.125707 -0.0837432 -0.0418672 -1.51877e-13 0.0418672 0.0837432 0.125707 0.167786 -0.164829 -0.12359 -0.0823627 -0.0411779 -1.51808e-13 0.0411779 0.0823627 0.12359 0.164829 -0.166146 -0.124627 -0.0830493 -0.0415224 -1.5185e-13 0.0415224 0.0830493 0.124627 0.166146 -0.0672949 -0.0502956 -0.0334728 -0.0167303 -5.77423e-14 0.0167303 0.0334728 0.0502956 0.0672949 -0.064138 -0.0481542 -0.032092 -0.0160424 -5.76739e-14 0.0160424 0.032092 0.0481542 0.064138 -0.0656298 -0.0492125 -0.0327808 -0.0163863 -5.76919e-14 0.0163863 0.0327808 0.0492125 0.0656298 0.0260293 0.0196666 0.013148 0.00658142 -1.12469e-15 -0.00658142 -0.013148 -0.0196666 -0.0260293 0.0291644 0.0218025 0.0145253 0.00726773 -1.03928e-15 -0.00726773 -0.0145253 -0.0218025 -0.0291644 0.0275653 0.0207278 0.0138354 0.00692412 -1.0601e-15 -0.00692412 -0.0138354 -0.0207278 -0.0275653 0.214068 0.160542 0.107018 0.0535181 2.13352e-13 -0.0535181 -0.107018 -0.160542 -0.214068 0.216861 0.162623 0.108383 0.0542005 2.13394e-13 -0.0542005 -0.108383 -0.162623 -0.216861 0.215221 0.161547 0.107694 0.0538582 2.1339e-13 -0.0538582 -0.107694 -0.161547 -0.215221 0.193577 0.181775 0.169612 0.157475 0.145339 0.133223 0.121115 0.109058 0.0969021 0.198035 0.18544 0.173084 0.160679 0.148303 0.135937 0.123596 0.111253 0.0990811 0.196106 0.183658 0.171355 0.159079 0.146822 0.13458 0.122353 0.110135 0.097897 -0.198035 -0.18544 -0.173084 -0.160679 -0.148303 -0.135937 -0.123596 -0.111253 -0.0990811 -0.193577 -0.181775 -0.169612 -0.157475 -0.145339 -0.133223 -0.121115 -0.109058 -0.0969021 -0.196106 -0.183658 -0.171355 -0.159079 -0.146822 -0.13458 -0.122353 -0.110135 -0.097897 0.0680955 0.0570759 0.0459345 0.0347982 0.0236739 0.012566 0.00147509 -0.00958328 -0.0205623 0.0696953 0.0582362 0.0468485 0.0354536 0.0240773 0.0127164 0.00137218 -0.00994329 -0.021239 0.0690804 0.0576909 0.0463974 0.0351274 0.0238762 0.0126411 0.00141965 -0.00979223 -0.0210556 -0.0696953 -0.0582362 -0.0468485 -0.0354536 -0.0240773 -0.0127164 -0.00137218 0.00994329 0.021239 -0.0680955 -0.0570759 -0.0459345 -0.0347982 -0.0236739 -0.012566 -0.00147509 0.00958328 0.0205623 -0.0690804 -0.0576909 -0.0463974 -0.0351274 -0.0238762 -0.0126411 -0.00141965 0.00979223 0.0210556 -0.0605355 -0.0836011 -0.106573 -0.129541 -0.152455 -0.175375 -0.198111 -0.221308 -0.242499 -0.0614189 -0.0850957 -0.108833 -0.132522 -0.156202 -0.179809 -0.203532 -0.226685 -0.251652 -0.0608845 -0.0843299 -0.107699 -0.131031 -0.154328 -0.177593 -0.200829 -0.224042 -0.247338 0.0614189 0.0850957 0.108833 0.132522 0.156202 0.179809 0.203532 0.226685 0.251652 0.0605355 0.0836011 0.106573 0.129541 0.152455 0.175375 0.198111 0.221308 0.242499 0.0608845 0.0843299 0.107699 0.131031 0.154328 0.177593 0.200829 0.224042 0.247338 -0.214552 -0.215968 -0.21076 -0.208702 -0.204026 -0.212336 -0.207848 -0.207074 -0.190119 -0.199592 -0.210606 -0.202229 -0.20943 -0.213874 -0.18615 -0.210496 -0.187948 -0.213838 0.20943 0.213874 0.18615 0.207074 0.207848 0.190119 0.199592 0.210496 0.187948 0.208702 0.21076 0.204026 0.210606 0.202229 0.214552 0.215968 0.212336 0.213838 -0.0849737 -0.0857851 -0.0932722 -0.0817051 -0.080361 -0.075599 -0.0831634 -0.0802849 -0.0809257 -0.0762134 -0.0732948 -0.0819371 -0.0747012 -0.0839174 -0.0856969 -0.0724363 -0.0906399 -0.0828721 -0.0742327 -0.0843066 -0.0918273 0.0839174 0.0856969 0.0724363 0.0906399 0.0809257 0.0802849 0.0762134 0.0732948 0.0828721 0.0742327 0.080361 0.0817051 0.075599 0.0819371 0.0747012 0.0849737 0.0857851 0.0932722 0.0831634 0.0843066 0.0918273 0.0333394 0.0321977 0.0261978 0.0365786 0.0374749 0.0489699 0.0348874 0.0374027 0.0359965 0.0289446 0.049694 0.0359515 0.0492297 0.0330683 0.0321399 0.0327433 0.0265963 0.0347123 0.0308247 0.0336607 0.0266088 -0.0330683 -0.0321399 -0.0327433 -0.0265963 -0.0359965 -0.0374027 -0.0289446 -0.049694 -0.0347123 -0.0308247 -0.0374749 -0.0365786 -0.0489699 -0.0359515 -0.0492297 -0.0333394 -0.0321977 -0.0261978 -0.0348874 -0.0336607 -0.0266088 0.273585 0.270756 0.261003 0.277788 0.278785 0.274961 0.275602 0.270655 0.241616 0.276139 0.268748 0.270015 0.245696 0.256068 0.272303 0.243385 0.272763 0.258808 -0.268748 -0.270015 -0.245696 -0.256068 -0.270655 -0.275602 -0.241616 -0.272303 -0.243385 -0.278785 -0.277788 -0.276139 -0.273585 -0.270756 -0.261003 -0.274961 -0.272763 -0.258808 -0.143823 -0.167003 -0.102772 -0.125156 -0.0616297 -0.0833994 -0.020544 -0.041694 0.020544 -1.51858e-13 0.0616297 0.041694 0.102772 0.0833994 0.143823 0.125156 0.167003 -0.14683 -0.165552 -0.104952 -0.124091 -0.0629346 -0.0827107 -0.0209802 -0.041349 0.0209802 -1.51836e-13 0.0629346 0.041349 0.104952 0.0827107 0.14683 0.124091 0.165552 -0.14531 -0.103857 -0.062282 -0.020762 0.020762 0.062282 0.103857 0.14531 -0.0559339 -0.0664767 -0.0399186 -0.0497495 -0.023932 -0.0331281 -0.00797555 -0.016558 0.00797555 -5.77182e-14 0.023932 0.016558 0.0399186 0.0331281 0.0559339 0.0497495 0.0664767 -0.0589019 -0.0649202 -0.0420878 -0.0486742 -0.0252331 -0.0324389 -0.00841062 -0.0162137 0.00841062 -5.76851e-14 0.0252331 0.0162137 0.0420878 0.0324389 0.0589019 0.0486742 0.0649202 -0.0574073 -0.0410011 -0.0245824 -0.00819307 0.00819307 0.0245824 0.0410011 0.0574073 0.0256741 0.0268164 0.0183603 0.0201929 0.0110315 0.0134928 0.00367884 0.00675247 -0.00367884 -1.08742e-15 -0.0110315 -0.00675247 -0.0183603 -0.0134928 -0.0256741 -0.0201929 -0.0268164 0.0227112 0.0283602 0.0161958 0.0212658 0.00973381 0.0141801 0.00324484 0.00709597 -0.00324484 -1.04624e-15 -0.00973381 -0.00709597 -0.0161958 -0.0141801 -0.0227112 -0.0212658 -0.0283602 0.0241855 0.0172774 0.0103823 0.00346182 -0.00346182 -0.0103823 -0.0172774 -0.0241855 0.189826 0.214738 0.135737 0.16102 0.0814201 0.107363 0.027147 0.0536864 -0.027147 2.1337e-13 -0.0814201 -0.0536864 -0.135737 -0.107363 -0.189826 -0.16102 -0.214738 0.186828 0.2161 0.133575 0.162068 0.0801278 0.108043 0.026715 0.0540281 -0.026715 2.13393e-13 -0.0801278 -0.0540281 -0.133575 -0.108043 -0.186828 -0.162068 -0.2161 0.188301 0.134649 0.0807734 0.0269308 -0.0269308 -0.0807734 -0.134649 -0.188301 0.191367 0.194854 0.179118 0.182708 0.166773 0.170486 0.154439 0.158276 0.142115 0.146081 0.129805 0.133901 0.117516 0.121737 0.105221 0.109588 0.0974337 0.188144 0.197002 0.175855 0.18457 0.163653 0.172214 0.151458 0.15988 0.139284 0.147562 0.127128 0.135259 0.114987 0.122973 0.102906 0.110702 0.0984652 0.189821 0.177496 0.165215 0.152949 0.1407 0.128466 0.116247 0.104038 -0.188144 -0.197002 -0.175855 -0.18457 -0.163653 -0.172214 -0.151458 -0.15988 -0.139284 -0.147562 -0.127128 -0.135259 -0.114987 -0.122973 -0.102906 -0.110702 -0.0984652 -0.191367 -0.194854 -0.179118 -0.182708 -0.166773 -0.170486 -0.154439 -0.158276 -0.142115 -0.146081 -0.129805 -0.133901 -0.117516 -0.121737 -0.105221 -0.109588 -0.0974337 -0.189821 -0.177496 -0.165215 -0.152949 -0.1407 -0.128466 -0.116247 -0.104038 0.0642478 0.0685774 0.0529235 0.0573836 0.0415645 0.0461658 0.0302136 0.0349628 0.0188763 0.0237751 0.00755362 0.0126034 -0.00374814 0.00144835 -0.0150091 -0.00969046 -0.0207909 0.0623521 0.069363 0.0511338 0.057971 0.039953 0.0466211 0.0287862 0.035291 0.0176383 0.0239767 0.0065075 0.0126786 -0.00460339 0.00139691 -0.0156979 -0.00987123 -0.0211346 0.0633447 0.0520362 0.04076 0.0295004 0.0182575 0.00703 -0.00418171 -0.015391 -0.0623521 -0.069363 -0.0511338 -0.057971 -0.039953 -0.0466211 -0.0287862 -0.035291 -0.0176383 -0.0239767 -0.0065075 -0.0126786 0.00460339 -0.00139691 0.0156979 0.00987123 0.0211346 -0.0642478 -0.0685774 -0.0529235 -0.0573836 -0.0415645 -0.0461658 -0.0302136 -0.0349628 -0.0188763 -0.0237751 -0.00755362 -0.0126034 0.00374814 -0.00144835 0.0150091 0.00969046 0.0207909 -0.0633447 -0.0520362 -0.04076 -0.0295004 -0.0182575 -0.00703 0.00418171 0.015391 -0.0726939 -0.0607209 -0.0964185 -0.0839624 -0.120124 -0.107137 -0.143805 -0.130285 -0.167459 -0.153392 -0.191091 -0.176482 -0.214667 -0.199475 -0.238213 -0.222664 -0.244924 -0.0726256 -0.0611523 -0.0956336 -0.0847134 -0.118614 -0.108266 -0.141559 -0.131777 -0.164466 -0.155264 -0.187329 -0.178703 -0.210173 -0.202172 -0.232949 -0.225385 -0.249447 -0.0726407 -0.0960224 -0.119368 -0.142682 -0.165962 -0.189211 -0.212427 -0.235627 0.0726256 0.0611523 0.0956336 0.0847134 0.118614 0.108266 0.141559 0.131777 0.164466 0.155264 0.187329 0.178703 0.210173 0.202172 0.232949 0.225385 0.249447 0.0726939 0.0607209 0.0964185 0.0839624 0.120124 0.107137 0.143805 0.130285 0.167459 0.153392 0.191091 0.176482 0.214667 0.199475 0.238213 0.222664 0.244924 0.0726407 0.0960224 0.119368 0.142682 0.165962 0.189211 0.212427 0.235627 
</DataArray>
<DataArray Name="Warping_Y" format="ascii" type="Float64">
-0.0592518 -0.0606422 -0.0591552 -0.0589287 -0.0594676 -0.0597499 -0.0606996 -0.0596805 -0.0594638 -0.0597499 -0.0589287 -0.0606996 -0.0606422 -0.0594676 -0.0592518 -0.0591552 -0.0596805 -0.0594638 0.00625476 0.00627882 0.00743315 0.00805025 0.00738489 0.0080217 0.00635 0.0070975 0.00727759 0.0080217 0.00805025 0.00635 0.00627882 0.00738489 0.00625476 0.00743315 0.0070975 0.00727759 0.0422125 0.0421437 0.043572 0.0450714 0.0437532 0.0441091 0.0428126 0.0432202 0.0435593 0.0441091 0.0450714 0.0428126 0.0421437 0.0437532 0.0422125 0.043572 0.0432202 0.0435593 -0.0676549 -0.065575 -0.0654716 -0.065598 -0.0657118 -0.0647433 -0.066507 -0.0659961 -0.0655675 -0.0647433 -0.065598 -0.066507 -0.065575 -0.0657118 -0.0676549 -0.0654716 -0.0659961 -0.0655675 -0.0502814 -0.0430297 -0.0377498 -0.0345677 -0.0335089 -0.0345677 -0.0377498 -0.0430297 -0.0502814 -0.0519549 -0.0443114 -0.0390875 -0.0358908 -0.0348355 -0.0358908 -0.0390875 -0.0443114 -0.0519549 -0.0510454 -0.0434267 -0.0381513 -0.034961 -0.0339036 -0.034961 -0.0381513 -0.0434267 -0.0510454 0.0164198 0.0238665 0.0291759 0.0323949 0.0334625 0.0323949 0.0291759 0.0238665 0.0164198 0.0157921 0.0233505 0.02865 0.0318723 0.0329396 0.0318723 0.02865 0.0233505 0.0157921 0.0161772 0.0238579 0.0291808 0.0324007 0.0334681 0.0324007 0.0291808 0.0238579 0.0161772 0.0526341 0.0601536 0.0655187 0.0687678 0.0698464 0.0687678 0.0655187 0.0601536 0.0526341 0.0527635 0.0603936 0.0657354 0.0689907 0.0700675 0.0689907 0.0657354 0.0603936 0.0527635 0.0527505 0.060518 0.0658927 0.0691445 0.0702223 0.0691445 0.0658927 0.060518 0.0527505 -0.0576211 -0.0496285 -0.0442119 -0.0408899 -0.0397943 -0.0408899 -0.0442119 -0.0496285 -0.0576211 -0.0554654 -0.0479647 -0.0424774 -0.0391725 -0.0380723 -0.0391725 -0.0424774 -0.0479647 -0.0554654 -0.0565062 -0.0485689 -0.0430861 -0.0397701 -0.0386716 -0.0397701 -0.0430861 -0.0485689 -0.0565062 -0.0538004 -0.0461062 -0.038574 -0.0313219 -0.0243651 -0.0177146 -0.0113786 -0.00535647 0.000394326 -0.0508388 -0.0430423 -0.0355157 -0.0282655 -0.021309 -0.0146576 -0.00832226 -0.00231498 0.00328669 -0.0521986 -0.0445165 -0.0369935 -0.0297451 -0.0227888 -0.0161381 -0.00980356 -0.00379002 0.00186226 -0.0508388 -0.0430423 -0.0355157 -0.0282655 -0.021309 -0.0146576 -0.00832226 -0.00231498 0.00328669 -0.0538004 -0.0461062 -0.038574 -0.0313219 -0.0243651 -0.0177146 -0.0113786 -0.00535647 0.000394326 -0.0521986 -0.0445165 -0.0369935 -0.0297451 -0.0227888 -0.0161381 -0.00980356 -0.00379002 0.00186226 0.0107888 0.015751 0.0204197 0.0246919 0.0285499 0.0319828 0.0349827 0.0375501 0.0397501 0.0138291 0.0189381 0.0236162 0.0278893 0.0317477 0.0351818 0.0381822 0.0407411 0.0428041 0.0123941 0.0173974 0.022066 0.0263372 0.0301951 0.0336285 0.0366287 0.0391926 0.0413286 0.0138291 0.0189381 0.0236162 0.0278893 0.0317477 0.0351818 0.0381822 0.0407411 0.0428041 0.0107888 0.015751 0.0204197 0.0246919 0.0285499 0.0319828 0.0349827 0.0375501 0.0397501 0.0123941 0.0173974 0.022066 0.0263372 0.0301951 0.0336285 0.0366287 0.0391926 0.0413286 0.0463269 0.0469238 0.0441867 0.0379388 0.028122 0.0147085 -0.00256833 -0.0229907 -0.0489589 0.0501336 0.0508603 0.0481417 0.0418973 0.0320819 0.0186697 0.00139326 -0.0190373 -0.0451176 0.0482859 0.048936 0.0462049 0.039958 0.0301417 0.0167275 -0.000544313 -0.020975 -0.046908 0.0501336 0.0508603 0.0481417 0.0418973 0.0320819 0.0186697 0.00139326 -0.0190373 -0.0451176 0.0463269 0.0469238 0.0441867 0.0379388 0.028122 0.0147085 -0.00256833 -0.0229907 -0.0489589 0.0482859 0.048936 0.0462049 0.039958 0.0301417 0.0167275 -0.000544313 -0.020975 -0.046908 -0.0582474 -0.0593472 -0.0589806 -0.0600208 -0.0557116 -0.0593749 -0.0592319 -0.0604302 -0.0472775 -0.0600573 -0.0596751 -0.0578162 -0.0606887 -0.0599095 -0.0633049 -0.0599615 -0.0553947 -0.0596203 -0.0606887 -0.0599095 -0.0633049 -0.0604302 -0.0592319 -0.0472775 -0.0600573 -0.0599615 -0.0553947 -0.0600208 -0.0589806 -0.0557116 -0.0596751 -0.0578162 -0.0582474 -0.0593472 -0.0593749 -0.0596203 0.00799579 0.00670481 0.00739465 0.00793633 0.0068713 0.0114637 0.00727058 0.00770639 0.00663006 0.0150144 0.00704001 0.00721994 0.0092383 0.00665608 0.0075464 0.0086652 0.0031746 0.00695508 0.0117516 0.0071639 0.00516969 0.00665608 0.0075464 0.0086652 0.0031746 0.00663006 0.00770639 0.0150144 0.00704001 0.00695508 0.0117516 0.0068713 0.00793633 0.0114637 0.00721994 0.0092383 0.00799579 0.00670481 0.00739465 0.00727058 0.0071639 0.00516969 0.0440264 0.0427418 0.0442313 0.0441354 0.0429872 0.048864 0.0434627 0.0444175 0.0433546 0.0471895 0.0444871 0.0436071 0.0466206 0.0429 0.0436443 0.0496256 0.0398312 0.0433278 0.0482944 0.0433246 0.0419792 0.0429 0.0436443 0.0496256 0.0398312 0.0433546 0.0444175 0.0471895 0.0444871 0.0433278 0.0482944 0.0429872 0.0441354 0.048864 0.0436071 0.0466206 0.0440264 0.0427418 0.0442313 0.0434627 0.0433246 0.0419792 -0.0656633 -0.0668085 -0.0611914 -0.0644878 -0.0655227 -0.0656069 -0.0658472 -0.066521 -0.0711934 -0.0657092 -0.0663231 -0.0654014 -0.0504759 -0.0656333 -0.0659276 -0.0609888 -0.0660683 -0.0633697 -0.0663231 -0.0654014 -0.0504759 -0.0656333 -0.066521 -0.0658472 -0.0711934 -0.0659276 -0.0609888 -0.0655227 -0.0644878 -0.0657092 -0.0656633 -0.0668085 -0.0611914 -0.0656069 -0.0660683 -0.0633697 -0.0547228 -0.0505652 -0.0483578 -0.0432492 -0.0441124 -0.0379391 -0.0419884 -0.0347611 -0.0419884 -0.0337003 -0.0441124 -0.0347611 -0.0483578 -0.0379391 -0.0547228 -0.0432492 -0.0505652 -0.0394801 -0.051307 -0.0330594 -0.0439142 -0.0288458 -0.0386008 -0.0267225 -0.0354246 -0.0267225 -0.0343626 -0.0288458 -0.0354246 -0.0330594 -0.0386008 -0.0394801 -0.0439142 -0.051307 -0.0469994 -0.0405806 -0.0363501 -0.0342264 -0.0342264 -0.0363501 -0.0405806 -0.0469994 0.0171143 0.016424 0.023574 0.0238324 0.0278555 0.029192 0.0300015 0.0324001 0.0300015 0.0334715 0.0278555 0.0324001 0.023574 0.029192 0.0171143 0.0238324 0.016424 0.023154 0.0161421 0.0296195 0.0235674 0.0338832 0.0289311 0.0360261 0.0321383 0.0360261 0.0332103 0.0338832 0.0321383 0.0296195 0.0289311 0.023154 0.0235674 0.0161421 0.0202476 0.026727 0.030998 0.0331421 0.0331421 0.030998 0.026727 0.0202476 0.0580313 0.0528342 0.0645527 0.0603032 0.0688711 0.0657199 0.0710382 0.0689582 0.0710382 0.0700403 0.0688711 0.0689582 0.0645527 0.0657199 0.0580313 0.0603032 0.0528342 0.0554931 0.0529119 0.0620211 0.0604177 0.0663295 0.0658298 0.068493 0.0690691 0.068493 0.0701511 0.0663295 0.0690691 0.0620211 0.0658298 0.0554931 0.0604177 0.0529119 0.0568703 0.0634155 0.0677279 0.069893 0.069893 0.0677279 0.0634155 0.0568703 -0.042509 -0.0568364 -0.0358232 -0.0491524 -0.031443 -0.0436289 -0.0292322 -0.0403301 -0.0292322 -0.0392265 -0.031443 -0.0403301 -0.0358232 -0.0436289 -0.042509 -0.0491524 -0.0568364 -0.0622242 -0.0558911 -0.0556384 -0.0482879 -0.0512346 -0.0427713 -0.0490331 -0.0394689 -0.0490331 -0.0383668 -0.0512346 -0.0394689 -0.0556384 -0.0427713 -0.0622242 -0.0482879 -0.0558911 -0.052282 -0.045609 -0.0412141 -0.0390073 -0.0390073 -0.0412141 -0.045609 -0.052282 -0.0461713 -0.05299 -0.038735 -0.045292 -0.0313234 -0.0377693 -0.0242268 -0.0305179 -0.0174195 -0.0235617 -0.0109302 -0.0169111 -0.00473626 -0.0105756 0.00103905 -0.00455842 0.00114507 -0.0501732 -0.0515052 -0.0427076 -0.0437635 -0.0352927 -0.0362396 -0.0281976 -0.0289899 -0.0213914 -0.0220336 -0.0149036 -0.0153828 -0.00871519 -0.00904681 -0.00297067 -0.00304053 0.002599 -0.0482373 -0.0407828 -0.0333723 -0.0262762 -0.0194698 -0.0129811 -0.00679132 -0.00102913 -0.0501732 -0.0515052 -0.0427076 -0.0437635 -0.0352927 -0.0362396 -0.0281976 -0.0289899 -0.0213914 -0.0220336 -0.0149036 -0.0153828 -0.00871519 -0.00904681 -0.00297067 -0.00304053 0.002599 -0.0461713 -0.05299 -0.038735 -0.045292 -0.0313234 -0.0377693 -0.0242268 -0.0305179 -0.0174195 -0.0235617 -0.0109302 -0.0169111 -0.00473626 -0.0105756 0.00103905 -0.00455842 0.00114507 -0.0482373 -0.0407828 -0.0333723 -0.0262762 -0.0194698 -0.0129811 -0.00679132 -0.00102913 0.0170681 0.0116023 0.0218456 0.0165918 0.0263208 0.0212575 0.0303848 0.0255299 0.0340318 0.0293876 0.0372496 0.0328208 0.0400351 0.0358207 0.0424149 0.0383873 0.0405541 0.0129246 0.0131281 0.0177328 0.0181823 0.0222119 0.0228563 0.026275 0.0271284 0.0299208 0.0309866 0.0331374 0.0344202 0.0359171 0.0374209 0.0382666 0.0399801 0.0420869 0.0149334 0.0197255 0.0242016 0.0282651 0.0319115 0.0351286 0.0379112 0.0402752 0.0129246 0.0131281 0.0177328 0.0181823 0.0222119 0.0228563 0.026275 0.0271284 0.0299208 0.0309866 0.0331374 0.0344202 0.0359171 0.0374209 0.0382666 0.0399801 0.0420869 0.0170681 0.0116023 0.0218456 0.0165918 0.0263208 0.0212575 0.0303848 0.0255299 0.0340318 0.0293876 0.0372496 0.0328208 0.0400351 0.0358207 0.0424149 0.0383873 0.0405541 0.0149334 0.0197255 0.0242016 0.0282651 0.0319115 0.0351286 0.0379112 0.0402752 0.0510839 0.0473156 0.0501295 0.0479463 0.0456128 0.0452102 0.0376114 0.0389633 0.0259496 0.0291465 0.01079 0.0157329 -0.0086992 -0.00154205 -0.0296051 -0.0219668 -0.0479175 0.046853 0.0492261 0.0459188 0.0499123 0.0414044 0.0471882 0.0334022 0.0409424 0.0217393 0.0311265 0.00657841 0.0177133 -0.0129157 0.000439359 -0.0338459 -0.019993 -0.0459896 0.048904 0.0479564 0.0434407 0.0354384 0.0237765 0.00861412 -0.0108692 -0.0318087 0.046853 0.0492261 0.0459188 0.0499123 0.0414044 0.0471882 0.0334022 0.0409424 0.0217393 0.0311265 0.00657841 0.0177133 -0.0129157 0.000439359 -0.0338459 -0.019993 -0.0459896 0.0510839 0.0473156 0.0501295 0.0479463 0.0456128 0.0452102 0.0376114 0.0389633 0.0259496 0.0291465 0.01079 0.0157329 -0.0086992 -0.00154205 -0.0296051 -0.0219668 -0.0479175 0.048904 0.0479564 0.0434407 0.0354384 0.0237765 0.00861412 -0.0108692 -0.0318087 
</DataArray>
<DataArray Name="Warping_Z" format="ascii" type="Float64">
0 0 0 0 0 0 0 0 0 0 0 0 0 0 0 0 0 0 0 0 0 0 0 0 0 0 0 0 0 0 0 0 0 0 0 0 0 0 0 0 0 0 0 0 0 0 0 0 0 0 0 0 0 0 0 0 0 0 0 0 0 0 0 0 0 0 0 0 0 0 0 0 0 0 0 0 0 0 0 0 0 0 0 0 0 0 0 0 0 0 0 0 0 0 0 0 0 0 0 0 0 0 0 0 0 0 0 0 0 0 0 0 0 0 0 0 0 0 0 0 0 0 0 0 0 0 0 0 0 0 0 0 0 0 0 0 0 0 0 0 0 0 0 0 0 0 0 0 0 0 0 0 0 0 0 0 0 0 0 0 0 0 0 0 0 0 0 0 0 0 0 0 0 0 0 0 0 0 0 0 0 0 0 0 0 0 0 0 0 0 0 0 0 0 0 0 0 0 0 0 0 0 0 0 0 0 0 0 0 0 0 0 0 0 0 0 0 0 0 0 0 0 0 0 0 0 0 0 0 0 0 0 0 0 0 0 0 0 0 0 0 0 0 0 0 0 0 0 0 0 0 0 0 0 0 0 0 0 0 0 0 0 0 0 0 0 0 0 0 0 0 0 0 0 0 0 0 0 0 0 0 0 0 0 0 0 0 0 0 0 0 0 0 0 0 0 0 0 0 0 0 0 0 0 0 0 0 0 0 0 0 0 0 0 0 0 0 0 0 0 0 0 0 0 0 0 0 0 0 0 0 0 0 0 0 0 0 0 0 0 0 0 0 0 0 0 0 0 0 0 0 0 0 0 0 0 0 0 0 0 0 0 0 0 0 0 0 0 0 0 0 0 0 0 0 0 0 0 0 0 0 0 0 0 0 0 0 0 0 0 0 0 0 0 0 0 0 0 0 0 0 0 0 0 0 0 0 0 0 0 0 0 0 0 0 0 0 0 0 0 0 0 0 0 0 0 0 0 0 0 0 0 0 0 0 0 0 0 0 0 0 0 0 0 0 0 0 0 0 0 0 0 0 0 0 0 0 0 0 0 0 0 0 0 0 0 0 0 0 0 0 0 0 0 0 0 0 0 0 0 0 0 0 0 0 0 0 0 0 0 0 0 0 0 0 0 0 0 0 0 0 0 0 0 0 0 0 0 0 0 0 0 0 0 0 0 0 0 0 0 0 0 0 0 0 0 0 0 0 0 0 0 0 0 0 0 0 0 0 0 0 0 0 0 0 0 0 0 0 0 0 0 0 0 0 0 0 0 0 0 0 0 0 0 0 0 0 0 0 0 0 0 0 0 0 0 0 0 0 0 0 0 0 0 0 0 0 0 0 0 0 0 0 0 0 0 0 0 0 0 0 0 0 0 0 0 0 0 0 0 0 0 0 0 0 0 0 0 0 0 0 0 0 0 0 0 0 0 0 0 0 0 0 0 0 0 0 0 0 0 0 0 0 0 0 0 0 0 0 0 0 0 0 0 0 0 0 0 0 0 0 0 0 0 0 0 0 0 0 0 0 0 0 0 0 0 0 0 0 0 0 0 0 0 0 0 0 0 0 0 0 0 0 0 0 0 0 0 0 0 0 0 0 0 0 0 0 0 0 0 0 0 0 0 0 0 0 0 0 0 0 0 0 0 0 0 0 0 0 0 0 0 0 0 0 0 0 0 0 0 0 0 0 0 0 0 0 0 0 0 0 0 0 0 0 0 0 0 0 0 0 0 0 0 0 0 0 0 0 0 0 0 0 0 0 0 0 0 0 0 0 0 0 0 0 0 0 0 0 0 0 0 0 0 0 0 0 0 0 0 0 0 0 0 0 0 0 0 0 0 0 0 0 0 0 0 0 0 0 0 0 0 0 0 0 0 0 0 0 0 0 0 0 0 0 0 0 0 0 0 0 0 0 0 0 0 0 0 0 0 0 0 0 0 0 0 0 0 0 0 0 0 0 0 0 0 0 0 0 0 0 0 0 0 0 0 0 0 0 0 0 0 0 0 0 0 0 0 0 0 0 0 0 0 0 0 0 0 0 0 0 0 0 0 0 0 0 0 0 0 0 0 0 0 0 0 0 0 
</DataArray>
</PointData>
<CellData>
<DataArray Name="MaterialId" format="ascii" type="Float64">
3 3 3 3 3 3 3 3 3 3 3 3 3 3 3 3 3 3 3 3 3 3 3 3 3 3 3 3 3 3 3 3 1 1 1 1 1 1 1 1 1 1 1 1 1 1 1 1 1 1 1 1 1 1 1 1 1 1 1 1 1 1 1 1 1 1 1 1 1 1 1 1 1 1 1 1 1 1 1 1 1 1 1 1 1 1 1 1 1 1 1 1 1 1 1 1 1 1 1 1 1 1 1 1 1 1 1 1 1 1 1 1 3 3 3 3 3 3 3 3 3 3 3 3 3 3 3 3 3 3 3 3 3 3 3 3 3 3 3 3 3 3 3 3 3 3 3 3 3 3 3 3 3 3 3 3 3 3 3 3 3 3 3 3 3 3 3 3 3 3 3 3 3 3 3 3 3 3 3 3 3 3 3 3 3 3 3 3 3 3 3 3 3 3 3 3 3 3 3 3 3 3 3 3 3 3 3 3 3 3 3 3 3 3 3 3 3 3 3 3 3 3 3 3 3 3 3 3 3 3 3 3 
</DataArray>
<DataArray Name="FiberAngle" format="ascii" type="Float64">
-45 -45 -45 -45 -45 -45 -45 -45 -45 -45 -45 -45 -45 -45 -45 -45 -45 -45 -45 -45 -45 -45 -45 -45 -45 -45 -45 -45 -45 -45 -45 -45 0 0 0 0 0 0 0 0 0 0 0 0 0 0 0 0 0 0 0 0 0 0 0 0 0 0 0 0 0 0 0 0 0 0 0 0 0 0 0 0 0 0 0 0 0 0 0 0 0 0 0 0 0 0 0 0 0 0 0 0 0 0 0 0 0 0 0 0 0 0 0 0 0 0 0 0 0 0 0 0 -45 -45 -45 -45 -45 -45 -45 -45 -45 -45 -45 -45 -45 -45 -45 -45 -45 -45 -45 -45 -45 -45 -45 -45 -45 -45 -45 -45 -45 -45 -45 -45 -45 -45 -45 -45 -45 -45 -45 -45 -45 -45 -45 -45 -45 -45 -45 -45 -45 -45 -45 -45 -45 -45 -45 -45 -45 -45 -45 -45 -45 -45 -45 -45 -45 -45 -45 -45 -45 -45 -45 -45 -45 -45 -45 -45 -45 -45 -45 -45 -45 -45 -45 -45 -45 -45 -45 -45 -45 -45 -45 -45 -45 -45 -45 -45 -45 -45 -45 -45 -45 -45 -45 -45 -45 -45 -45 -45 -45 -45 -45 -45 -45 -45 -45 -45 -45 -45 -45 -45 
</DataArray>
<DataArray Name="Strain_11" format="ascii" type="Float64">
0.726453 0.726836 0.675726 0.529535 -0.675726 -0.529535 -0.726453 -0.726836 0.524346 0.560468 0.564974 0.517426 -0.564974 -0.517426 -0.524346 -0.560468 0.537947 0.517501 0.514465 0.538084 -0.514465 -0.538084 -0.537947 -0.517501 0.841028 0.764782 0.457678 0.659761 -0.457678 -0.659761 -0.841028 -0.764782 0.434263 0.303937 0.218886 0.130524 0.0436444 -0.0436444 -0.130524 -0.218886 -0.303937 -0.434263 0.359535 0.297548 0.217053 0.130463 0.0435989 -0.0435989 -0.130463 -0.217053 -0.297548 -0.359535 0.396143 0.298924 0.217336 0.130125 0.0435087 -0.0435087 -0.130125 -0.217336 -0.298924 -0.396143 0.359277 0.294692 0.216509 0.130078 0.0435037 -0.0435037 -0.130078 -0.216509 -0.294692 -0.359277 0.376021 0.294868 0.216324 0.129698 0.0433946 -0.0433946 -0.129698 -0.216324 -0.294868 -0.376021 0.383709 0.297708 0.216564 0.129842 0.0434052 -0.0434052 -0.129842 -0.216564 -0.297708 -0.383709 0.353958 0.29454 0.214774 0.129105 0.0431479 -0.0431479 -0.129105 -0.214774 -0.29454 -0.353958 0.462198 0.305078 0.217644 0.129357 0.0432531 -0.0432531 -0.129357 -0.217644 -0.305078 -0.462198 -0.461515 -0.529023 -0.525785 -0.524845 -0.524203 -0.523509 -0.522838 -0.52216 -0.520706 -0.543332 -0.589258 -0.516858 -0.520103 -0.519559 -0.518953 -0.518296 -0.517622 -0.516985 -0.517183 -0.495685 0.589258 0.516858 0.520103 0.519559 0.518953 0.518296 0.517622 0.516985 0.517183 0.495685 0.461515 0.529023 0.525785 0.524845 0.524203 0.523509 0.522838 0.52216 0.520706 0.543332 -0.45508 -0.474669 -0.472911 -0.472085 -0.471429 -0.470756 -0.470071 -0.469506 -0.469308 -0.458555 -0.490986 -0.466409 -0.467408 -0.466788 -0.466154 -0.465488 -0.464795 -0.464117 -0.462517 -0.475283 0.490986 0.466409 0.467408 0.466788 0.466154 0.465488 0.464795 0.464117 0.462517 0.475283 0.45508 0.474669 0.472911 0.472085 0.471429 0.470756 0.470071 0.469506 0.469308 0.458555 -0.489682 -0.485798 -0.485621 -0.484753 -0.484273 -0.483288 -0.4839 -0.478608 -0.496134 -0.424067 -0.479299 -0.479207 -0.477823 -0.477288 -0.476426 -0.476074 -0.474087 -0.478127 -0.458967 -0.532621 0.479299 0.479207 0.477823 0.477288 0.476426 0.476074 0.474087 0.478127 0.458967 0.532621 0.489682 0.485798 0.485621 0.484753 0.484273 0.483288 0.4839 0.478608 0.496134 0.424067 
</DataArray>
<DataArray Name="Strain_22" format="ascii" type="Float64">
0.27458 0.138906 0.21368 0.151031 -0.21368 -0.151031 -0.27458 -0.138906 0.166378 0.143278 0.101564 0.117975 -0.101564 -0.117975 -0.166378 -0.143278 0.140348 0.10565 0.0849137 0.050503 -0.0849137 -0.050503 -0.140348 -0.10565 0.0810035 0.24429 0.0509597 0.162365 -0.0509597 -0.162365 -0.0810035 -0.24429 0.396663 0.321424 0.231019 0.138095 0.0461738 -0.0461738 -0.138095 -0.231019 -0.321424 -0.396663 0.440154 0.318086 0.230874 0.138172 0.046125 -0.046125 -0.138172 -0.230874 -0.318086 -0.440154 0.413566 0.32284 0.233206 0.139443 0.0466071 -0.0466071 -0.139443 -0.233206 -0.32284 -0.413566 0.424691 0.322105 0.233026 0.139485 0.0465793 -0.0465793 -0.139485 -0.233026 -0.322105 -0.424691 0.415533 0.326342 0.235307 0.140839 0.0470463 -0.0470463 -0.140839 -0.235307 -0.326342 -0.415533 0.43192 0.32474 0.235507 0.140794 0.0470515 -0.0470515 -0.140794 -0.235507 -0.32474 -0.43192 0.46217 0.330573 0.239853 0.143585 0.0479177 -0.0479177 -0.143585 -0.239853 -0.330573 -0.46217 0.412466 0.334088 0.240152 0.143426 0.0479823 -0.0479823 -0.143426 -0.240152 -0.334088 -0.412466 -0.448227 -0.387178 -0.38496 -0.384071 -0.384269 -0.384326 -0.384514 -0.384774 -0.388309 -0.399017 -0.420915 -0.413215 -0.409562 -0.409782 -0.409886 -0.410055 -0.410173 -0.411013 -0.413636 -0.444994 0.420915 0.413215 0.409562 0.409782 0.409886 0.410055 0.410173 0.411013 0.413636 0.444994 0.448227 0.387178 0.38496 0.384071 0.384269 0.384326 0.384514 0.384774 0.388309 0.399017 -0.439658 -0.401755 -0.398545 -0.397949 -0.398038 -0.398129 -0.398243 -0.39882 -0.401713 -0.429595 -0.445072 -0.426949 -0.424007 -0.423828 -0.423938 -0.424066 -0.424198 -0.424766 -0.42793 -0.450425 0.445072 0.426949 0.424007 0.423828 0.423938 0.424066 0.424198 0.424766 0.42793 0.450425 0.439658 0.401755 0.398545 0.397949 0.398038 0.398129 0.398243 0.39882 0.401713 0.429595 -0.426698 -0.4102 -0.407521 -0.407267 -0.407231 -0.407437 -0.407142 -0.409303 -0.407441 -0.452718 -0.44868 -0.435991 -0.43463 -0.434429 -0.434606 -0.434625 -0.435179 -0.434 -0.440722 -0.435674 0.44868 0.435991 0.43463 0.434429 0.434606 0.434625 0.435179 0.434 0.440722 0.435674 0.426698 0.4102 0.407521 0.407267 0.407231 0.407437 0.407142 0.409303 0.407441 0.452718 
</DataArray>
<DataArray Name="Strain_12" format="ascii" type="Float64">
-0.148276 -0.159991 -0.892046 -0.560617 -0.892046 -0.560617 -0.148276 -0.159991 -0.0202739 -0.033454 -0.196098 -0.0520171 -0.196098 -0.0520171 -0.0202739 -0.033454 0.0799046 0.0303053 0.0551918 0.20895 0.0551918 0.20895 0.0799046 0.0303053 0.40477 0.34652 0.697634 1.113 0.697634 1.113 0.40477 0.34652 0.181858 0.298767 0.294927 0.297465 0.297005 0.297005 0.297465 0.294927 0.298767 0.181858 0.262607 0.274778 0.260044 0.260833 0.260377 0.260377 0.260833 0.260044 0.274778 0.262607 0.043326 0.125061 0.127374 0.128408 0.128145 0.128145 0.128408 0.127374 0.125061 0.043326 0.141011 0.100621 0.0920798 0.0919322 0.0917969 0.0917969 0.0919322 0.0920798 0.100621 0.141011 -0.111029 -0.0330017 -0.0291816 -0.0283178 -0.0285185 -0.0285185 -0.0283178 -0.0291816 -0.0330017 -0.111029 -0.00558581 -0.0557776 -0.0638837 -0.0644294 -0.0645294 -0.0645294 -0.0644294 -0.0638837 -0.0557776 -0.00558581 -0.331019 -0.360803 -0.343007 -0.344379 -0.343898 -0.343898 -0.344379 -0.343007 -0.360803 -0.331019 -0.245679 -0.380991 -0.375738 -0.379563 -0.379179 -0.379179 -0.379563 -0.375738 -0.380991 -0.245679 -0.198516 -0.00614891 -0.00803826 -0.00384676 -0.00213574 -0.000169012 0.00203791 0.0036469 0.0137124 -0.0269488 -0.060175 0.0185544 -0.0041367 -0.00317781 -0.00196741 -8.91384e-05 0.00184795 0.00224885 0.00596114 -0.0523956 -0.060175 0.0185544 -0.0041367 -0.00317781 -0.00196741 -8.91384e-05 0.00184795 0.00224885 0.00596114 -0.0523956 -0.198516 -0.00614891 -0.00803826 -0.00384676 -0.00213574 -0.000169012 0.00203791 0.0036469 0.0137124 -0.0269488 -0.0553777 0.0120843 0.0142801 0.0165957 0.0179307 0.0192233 0.0205323 0.0222949 0.0264155 0.0674016 0.0175678 0.0272717 0.0169441 0.0171324 0.0180876 0.0192934 0.0202693 0.0202293 0.0138986 0.00895252 0.0175678 0.0272717 0.0169441 0.0171324 0.0180876 0.0192934 0.0202693 0.0202293 0.0138986 0.00895252 -0.0553777 0.0120843 0.0142801 0.0165957 0.0179307 0.0192233 0.0205323 0.0222949 0.0264155 0.0674016 0.00629879 0.0171752 0.0215897 0.0220255 0.0221331 0.022798 0.0202551 0.0296328 -0.000503224 0.147742 0.0372696 0.0236387 0.0228096 0.0223059 0.0222117 0.022783 0.0198101 0.0267721 -0.0178641 0.0495629 0.0372696 0.0236387 0.0228096 0.0223059 0.0222117 0.022783 0.0198101 0.0267721 -0.0178641 0.0495629 0.00629879 0.0171752 0.0215897 0.0220255 0.0221331 0.022798 0.0202551 0.0296328 -0.000503224 0.147742 
</DataArray>
<DataArray Name="Strain_13" format="ascii" type="Float64">