<?xml version="1.0"?>
<VTKFile byte_order="LittleEndian" type="UnstructuredGrid" version="0.1">
<UnstructuredGrid>
<Piece NumberOfCells="100" NumberOfPoints="121">
<PointData>
<DataArray Name="Warping_X" format="ascii" type="Float64">
0.00197917 0.00197917 0.00197917 0.00197917 0.00197917 0.00197917 5.79142e-20 0.00158333 0.0011875 0.000791667 0.000395833 -5.49841e-19 -4.12946e-19 -5.75249e-19 -8.37729e-19 -9.02193e-19 0.000395833 0.000791667 0.0011875 0.00158333 0.00158333 0.00158333 0.00158333 0.00158333 0.0011875 0.0011875 0.0011875 0.0011875 0.000791667 0.000791667 0.000791667 0.000791667 0.000395833 0.000395833 0.000395833 0.000395833 0.00197917 0.00197917 0.00197917 0.00197917 0.00197917 1.47604e-18 0.00158333 0.0011875 0.000791667 0.000395833 1.69004e-18 1.54218e-18 1.27035e-18 6.11933e-19 0.00158333 0.00158333 0.00158333 0.00158333 0.0011875 0.0011875 0.0011875 0.0011875 0.000791667 0.000791667 0.000791667 0.000791667 0.000395833 0.000395833 0.000395833 0.000395833 -0.00197917 -0.000395833 -0.000791667 -0.0011875 -0.00158333 -0.00197917 -0.00197917 -0.00197917 -0.00197917 -0.00197917 -0.00158333 -0.0011875 -0.000791667 -0.000395833 -0.000395833 -0.000395833 -0.000395833 -0.000395833 -0.000791667 -0.000791667 -0.000791667 -0.000791667 -0.0011875 -0.0011875 -0.0011875 -0.0011875 -0.00158333 -0.00158333 -0.00158333 -0.00158333 -0.00197917 -0.000395833 -0.000791667 -0.0011875 -0.00158333 -0.00197917 -0.00197917 -0.00197917 -0.00197917 -0.000395833 -0.000395833 -0.000395833 -0.000395833 -0.000791667 -0.000791667 -0.000791667 -0.000791667 -0.0011875 -0.0011875 -0.0011875 -0.0011875 -0.00158333 -0.00158333 -0.00158333 -0.00158333 
</DataArray>
<DataArray Name="Warping_Y" format="ascii" type="Float64">
0.00197917 -8.07757e-19 0.00158333 0.0011875 0.000791667 0.000395833 2.42831e-20 -1.59194e-18 -1.47157e-18 -9.67451e-19 -4.2797e-19 0.00197917 0.000395833 0.000791667 0.0011875 0.00158333 0.00197917 0.00197917 0.00197917 0.00197917 0.00158333 0.0011875 0.000791667 0.000395833 0.00158333 0.0011875 0.000791667 0.000395833 0.00158333 0.0011875 0.000791667 0.000395833 0.00158333 0.0011875 0.000791667 0.000395833 -0.00197917 -0.000395833 -0.000791667 -0.0011875 -0.00158333 -0.00197917 -0.00197917 -0.00197917 -0.00197917 -0.00197917 -0.00158333 -0.0011875 -0.000791667 -0.000395833 -0.000395833 -0.000791667 -0.0011875 -0.00158333 -0.000395833 -0.000791667 -0.0011875 -0.00158333 -0.000395833 -0.000791667 -0.0011875 -0.00158333 -0.000395833 -0.000791667 -0.0011875 -0.00158333 5.17826e-19 4.70583e-19 6.93313e-19 5.35648e-19 5.92983e-19 0.00197917 0.000395833 0.000791667 0.0011875 0.00158333 0.00197917 0.00197917 0.00197917 0.00197917 0.00158333 0.0011875 0.000791667 0.000395833 0.00158333 0.0011875 0.000791667 0.000395833 0.00158333 0.0011875 0.000791667 0.000395833 0.00158333 0.0011875 0.000791667 0.000395833 -0.00197917 -0.00197917 -0.00197917 -0.00197917 -0.00197917 -0.00158333 -0.0011875 -0.000791667 -0.000395833 -0.000395833 -0.000791667 -0.0011875 -0.00158333 -0.000395833 -0.000791667 -0.0011875 -0.00158333 -0.000395833 -0.000791667 -0.0011875 -0.00158333 -0.000395833 -0.000791667 -0.0011875 -0.00158333 
</DataArray>
<DataArray Name="Warping_Z" format="ascii" type="Float64">
0 0 0 0 0 0 0 0 0 0 0 0 0 0 0 0 0 0 0 0 0 0 0 0 0 0 0 0 0 0 0 0 0 0 0 0 0 0 0 0 0 0 0 0 0 0 0 0 0 0 0 0 0 0 0 0 0 0 0 0 0 0 0 0 0 0 0 0 0 0 0 0 0 0 0 0 0 0 0 0 0 0 0 0 0 0 0 0 0 0 0 0 0 0 0 0 0 0 0 0 0 0 0 0 0 0 0 0 0 0 0 0 0 0 0 0 0 0 0 0 0 
</DataArray>
</PointData>
<CellData>
<DataArray Name="MaterialId" format="ascii" type="Float64">
3 3 3 3 3 3 3 3 3 3 3 3 3 3 3 3 3 3 3 3 3 3 3 3 3 3 3 3 3 3 3 3 3 3 3 3 3 3 3 3 3 3 3 3 3 3 3 3 3 3 3 3 3 3 3 3 3 3 3 3 3 3 3 3 3 3 3 3 3 3 3 3 3 3 3 3 3 3 3 3 3 3 3 3 3 3 3 3 3 3 3 3 3 3 3 3 3 3 3 3 
</DataArray>
<DataArray Name="FiberAngle" format="ascii" type="Float64">
0 0 0 0 0 0 0 0 0 0 0 0 0 0 0 0 0 0 0 0 0 0 0 0 0 0 0 0 0 0 0 0 0 0 0 0 0 0 0 0 0 0 0 0 0 0 0 0 0 0 0 0 0 0 0 0 0 0 0 0 0 0 0 0 0 0 0 0 0 0 0 0 0 0 0 0 0 0 0 0 0 0 0 0 0 0 0 0 0 0 0 0 0 0 0 0 0 0 0 0 
</DataArray>
<DataArray Name="Strain_11" format="ascii" type="Float64">
-0.0395833 -0.0395833 -0.0395833 -0.0395833 -0.0395833 -0.0395833 -0.0395833 -0.0395833 -0.0395833 -0.0395833 -0.0395833 -0.0395833 -0.0395833 -0.0395833 -0.0395833 -0.0395833 -0.0395833 -0.0395833 -0.0395833 -0.0395833 -0.0395833 -0.0395833 -0.0395833 -0.0395833 -0.0395833 -0.0395833 -0.0395833 -0.0395833 -0.0395833 -0.0395833 -0.0395833 -0.0395833 -0.0395833 -0.0395833 -0.0395833 -0.0395833 -0.0395833 -0.0395833 -0.0395833 -0.0395833 -0.0395833 -0.0395833 -0.0395833 -0.0395833 -0.0395833 -0.0395833 -0.0395833 -0.0395833 -0.0395833 -0.0395833 -0.0395833 -0.0395833 -0.0395833 -0.0395833 -0.0395833 -0.0395833 -0.0395833 -0.0395833 -0.0395833 -0.0395833 -0.0395833 -0.0395833 -0.0395833 -0.0395833 -0.0395833 -0.0395833 -0.0395833 -0.0395833 -0.0395833 -0.0395833 -0.0395833 -0.0395833 -0.0395833 -0.0395833 -0.0395833 -0.0395833 -0.0395833 -0.0395833 -0.0395833 -0.0395833 -0.0395833 -0.0395833 -0.0395833 -0.0395833 -0.0395833 -0.0395833 -0.0395833 -0.0395833 -0.0395833 -0.0395833 -0.0395833 -0.0395833 -0.0395833 -0.0395833 -0.0395833 -0.0395833 -0.0395833 -0.0395833 -0.0395833 -0.0395833 
</DataArray>
<DataArray Name="Strain_22" format="ascii" type="Float64">
-0.0395833 -0.0395833 -0.0395833 -0.0395833 -0.0395833 -0.0395833 -0.0395833 -0.0395833 -0.0395833 -0.0395833 -0.0395833 -0.0395833 -0.0395833 -0.0395833 -0.0395833 -0.0395833 -0.0395833 -0.0395833 -0.0395833 -0.0395833 -0.0395833 -0.0395833 -0.0395833 -0.0395833 -0.0395833 -0.0395833 -0.0395833 -0.0395833 -0.0395833 -0.0395833 -0.0395833 -0.0395833 -0.0395833 -0.0395833 -0.0395833 -0.0395833 -0.0395833 -0.0395833 -0.0395833 -0.0395833 -0.0395833 -0.0395833 -0.0395833 -0.0395833 -0.0395833 -0.0395833 -0.0395833 -0.0395833 -0.0395833 -0.0395833 -0.0395833 -0.0395833 -0.0395833 -0.0395833 -0.0395833 -0.0395833 -0.0395833 -0.0395833 -0.0395833 -0.0395833 -0.0395833 -0.0395833 -0.0395833 -0.0395833 -0.0395833 -0.0395833 -0.0395833 -0.0395833 -0.0395833 -0.0395833 -0.0395833 -0.0395833 -0.0395833 -0.0395833 -0.0395833 -0.0395833 -0.0395833 -0.0395833 -0.0395833 -0.0395833 -0.0395833 -0.0395833 -0.0395833 -0.0395833 -0.0395833 -0.0395833 -0.0395833 -0.0395833 -0.0395833 -0.0395833 -0.0395833 -0.0395833 -0.0395833 -0.0395833 -0.0395833 -0.0395833 -0.0395833 -0.0395833 -0.0395833 -0.0395833 
</DataArray>
<DataArray Name="Strain_12" format="ascii" type="Float64">
-7.85217e-17 3.55364e-17 -5.20163e-17 5.76796e-17 2.0383e-17 -1.02106e-17 8.60666e-17 1.30774e-16 1.15793e-16 5.07407e-17 -2.19263e-17 4.50774e-17 9.50016e-17 1.0842e-16 4.72712e-17 4.9108e-17 7.50204e-17 1.00187e-16 1.15353e-16 7.24183e-17 2.35379e-17 1.09904e-16 1.41233e-16 1.26881e-16 1.05858e-16 4.65186e-17 1.23822e-16 1.71738e-16 1.27611e-16 1.05168e-16 2.8202e-17 1.14721e-16 1.84314e-16 1.16226e-16 1.17744e-16 -6.22141e-17 1.05187e-16 1.45047e-16 7.87322e-17 7.09259e-17 3.94904e-17 5.46692e-17 3.55364e-17 3.03577e-17 4.72712e-17 -1.23281e-17 3.53768e-17 3.40121e-17 -3.55618e-17 4.77049e-17 1.86483e-17 3.81894e-17 5.20671e-17 -5.66329e-18 2.98985e-17 7.45931e-17 3.36293e-17 6.52881e-17 1.93248e-18 4.7469e-17 8.80372e-17 3.58041e-17 4.14541e-18 -2.648e-17 1.66713e-17 7.11173e-17 4.03387e-17 1.54148e-17 3.78323e-17 1.89672e-17 8.84197e-17 5.00882e-17 -1.45122e-17 -3.9831e-17 2.15761e-17 8.89046e-17 6.29921e-17 3.63017e-17 6.18631e-18 1.23663e-17 7.67615e-17 3.81639e-17 2.03448e-17 2.55999e-17 5.87765e-17 8.39363e-17 -8.04218e-18 -7.21298e-18 -3.40249e-17 -4.70353e-17 8.10983e-17 4.2909e-17 4.31137e-18 -5.5052e-17 4.6863e-17 4.33681e-18 6.0033e-17 -2.49685e-17 -6.52372e-17 -2.18691e-17 
</DataArray>
<DataArray Name="Strain_13" format="ascii" type="Float64">
0 0 0 0 0 0 0 0 0 0 0 0 0 0 0 0 0 0 0 0 0 0 0 0 0 0 0 0 0 0 0 0 0 0 0 0 0 0 0 0 0 0 0 0 0 0 0 0 0 0 0 0 0 0 0 0 0 0 0 0 0 0 0 0 0 0 0 0 0 0 0 0 0 0 0 0 0 0 0 0 0 0 0 0 0 0 0 0 0 0 0 0 0 0 0 0 0 0 0 0 
</DataArray>
<DataArray Name="Strain_23" format="ascii" type="Float64">
0 0 0 0 0 0 0 0 0 0 0 0 0 0 0 0 0 0 0 0 0 0 0 0 0 0 0 0 0 0 0 0 0 0 0 0 0 0 0 0 0 0 0 0 0 0 0 0 0 0 0 0 0 0 0 0 0 0 0 0 0 0 0 0 0 0 0 0 0 0 0 0 0 0 0 0 0 0 0 0 0 0 0 0 0 0 0 0 0 0 0 0 0 0 0 0 0 0 0 0 
</DataArray>
<DataArray Name="Strain_33" format="ascii" type="Float64">
1 1 1 1 1 1 1 1 1 1 1 1 1 1 1 1 1 1 1 1 1 1 1 1 1 1 1 1 1 1 1 1 1 1 1 1 1 1 1 1 1 1 1 1 1 1 1 1 1 1 1 1 1 1 1 1 1 1 1 1 1 1 1 1 1 1 1 1 1 1 1 1 1 1 1 1 1 1 1 1 1 1 1 1 1 1 1 1 1 1 1 1 1 1 1 1 1 1 1 1 
</DataArray>
<DataArray Name="Stress_11" format="ascii" type="Float64">
25.0017 25.0017 25.0017 25.0017 25.0017 25.0017 25.0017 25.0017 25.0017 25.0017 25.0017 25.0017 25.0017 25.0017 25.0017 25.0017 25.0017 25.0017 25.0017 25.0017 25.0017 25.0017 25.0017 25.0017 25.0017 25.0017 25.0017 25.0017 25.0017 25.0017 25.0017 25.0017 25.0017 25.0017 25.0017 25.0017 25.0017 25.0017 25.0017 25.0017 25.0017 25.0017 25.0017 25.0017 25.0017 25.0017 25.0017 25.0017 25.0017 25.0017 25.0017 25.0017 25.0017 25.0017 25.0017 25.0017 25.0017 25.0017 25.0017 25.0017 25.0017 25.0017 25.0017 25.0017 25.0017 25.0017 25.0017 25.0017 25.0017 25.0017 25.0017 25.0017 25.0017 25.0017 25.0017 25.0017 25.0017 25.0017 25.0017 25.0017 25.0017 25.0017 25.0017 25.0017 25.0017 25.0017 25.0017 25.0017 25.0017 25.0017 25.0017 25.0017 25.0017 25.0017 25.0017 25.0017 25.0017 25.0017 25.0017 25.0017 
</DataArray>
<DataArray Name="Stress_22" format="ascii" type="Float64">
25.0017 25.0017 25.0017 25.0017 25.0017 25.0017 25.0017 25.0017 25.0017 25.0017 25.0017 25.0017 25.0017 25.0017 25.0017 25.0017 25.0017 25.0017 25.0017 25.0017 25.0017 25.0017 25.0017 25.0017 25.0017 25.0017 25.0017 25.0017 25.0017 25.0017 25.0017 25.0017 25.0017 25.0017 25.0017 25.0017 25.0017 25.0017 25.0017 25.0017 25.0017 25.0017 25.0017 25.0017 25.0017 25.0017 25.0017 25.0017 25.0017 25.0017 25.0017 25.0017 25.0017 25.0017 25.0017 25.0017 25.0017 25.0017 25.0017 25.0017 25.0017 25.0017 25.0017 25.0017 25.0017 25.0017 25.0017 25.0017 25.0017 25.0017 25.0017 25.0017 25.0017 25.0017 25.0017 25.0017 25.0017 25.0017 25.0017 25.0017 25.0017 25.0017 25.0017 25.0017 25.0017 25.0017 25.0017 25.0017 25.0017 25.0017 25.0017 25.0017 25.0017 25.0017 25.0017 25.0017 25.0017 25.0017 25.0017 25.0017 
</DataArray>
<DataArray Name="Stress_12" format="ascii" type="Float64">
-3.92608e-15 1.77682e-15 -2.60081e-15 2.88398e-15 1.01915e-15 -5.10529e-16 4.30333e-15 6.53869e-15 5.78964e-15 2.53703e-15 -1.09632e-15 2.25387e-15 4.75008e-15 5.42101e-15 2.36356e-15 2.4554e-15 3.75102e-15 5.00933e-15 5.76764e-15 3.62092e-15 1.1769e-15 5.49519e-15 7.06164e-15 6.34407e-15 5.29289e-15 2.32593e-15 6.19111e-15 8.58688e-15 6.38053e-15 5.25838e-15 1.4101e-15 5.73607e-15 9.21572e-15 5.81132e-15 5.88722e-15 -3.11071e-15 5.25933e-15 7.25236e-15 3.93661e-15 3.5463e-15 1.97452e-15 2.73346e-15 1.77682e-15 1.51788e-15 2.36356e-15 -6.16405e-16 1.76884e-15 1.70061e-15 -1.77809e-15 2.38524e-15 9.32414e-16 1.90947e-15 2.60336e-15 -2.83165e-16 1.49493e-15 3.72966e-15 1.68147e-15 3.2644e-15 9.66241e-17 2.37345e-15 4.40186e-15 1.79021e-15 2.07271e-16 -1.324e-15 8.33564e-16 3.55587e-15 2.01693e-15 7.70738e-16 1.89161e-15 9.48359e-16 4.42098e-15 2.50441e-15 -7.25609e-16 -1.99155e-15 1.0788e-15 4.44523e-15 3.14961e-15 1.81508e-15 3.09316e-16 6.18313e-16 3.83808e-15 1.9082e-15 1.01724e-15 1.27999e-15 2.93882e-15 4.19682e-15 -4.02109e-16 -3.60649e-16 -1.70124e-15 -2.35176e-15 4.05492e-15 2.14545e-15 2.15568e-16 -2.7526e-15 2.34315e-15 2.1684e-16 3.00165e-15 -1.24842e-15 -3.26186e-15 -1.09345e-15 
</DataArray>
<DataArray Name="Stress_13" format="ascii" type="Float64">
0 0 0 0 0 0 0 0 0 0 0 0 0 0 0 0 0 0 0 0 0 0 0 0 0 0 0 0 0 0 0 0 0 0 0 0 0 0 0 0 0 0 0 0 0 0 0 0 0 0 0 0 0 0 0 0 0 0 0 0 0 0 0 0 0 0 0 0 0 0 0 0 0 0 0 0 0 0 0 0 0 0 0 0 0 0 0 0 0 0 0 0 0 0 0 0 0 0 0 0 
</DataArray>
<DataArray Name="Stress_23" format="ascii" type="Float64">
0 0 0 0 0 0 0 0 0 0 0 0 0 0 0 0 0 0 0 0 0 0 0 0 0 0 0 0 0 0 0 0 0 0 0 0 0 0 0 0 0 0 0 0 0 0 0 0 0 0 0 0 0 0 0 0 0 0 0 0 0 0 0 0 0 0 0 0 0 0 0 0 0 0 0 0 0 0 0 0 0 0 0 0 0 0 0 0 0 0 0 0 0 0 0 0 0 0 0 0 
</DataArray>
<DataArray Name="Stress_33" format="ascii" type="Float64">
489.501 489.501 489.501 489.501 489.501 489.501 489.501 489.501 489.501 489.501 489.501 489.501 489.501 489.501 489.501 489.501 489.501 489.501 489.501 489.501 489.501 489.501 489.501 489.501 489.501 489.501 489.501 489.501 489.501 489.501 489.501 489.501 489.501 489.501 489.501 489.501 489.501 489.501 489.501 489.501 489.501 489.501 489.501 489.501 489.501 489.501 489.501 489.501 489.501 489.501 489.501 489.501 489.501 489.501 489.501 489.501 489.501 489.501 489.501 489.501 489.501 489.501 489.501 489.501 489.501 489.501 489.501 489.501 489.501 489.501 489.501 489.501 489.501 489.501 489.501 489.501 489.501 489.501 489.501 489.501 489.501 489.501 489.501 489.501 489.501 489.501 489.501 489.501 489.501 489.501 489.501 489.501 489.501 489.501 489.501 489.501 489.501 489.501 489.501 489.501 
</DataArray>
</CellData>
<Points>
<DataArray NumberOfComponents="3" format="ascii" type="Float64">
-0.05 -0.05 0 -0.05 0 0 -0.05 -0.04 0 -0.05 -0.03 0 -0.05 -0.02 0 -0.05 -0.01 0 0 0 0 -0.04 0 0 -0.03 0 0 -0.02 0 0 -0.01 0 0 0 -0.05 0 0 -0.01 0 0 -0.02 0 0 -0.03 0 0 -0.04 0 -0.01 -0.05 0 -0.02 -0.05 0 -0.03 -0.05 0 -0.04 -0.05 0 -0.04 -0.04 0 -0.04 -0.03 0 -0.04 -0.02 0 -0.04 -0.01 0 -0.03 -0.04 0 -0.03 -0.03 0 -0.03 -0.02 0 -0.03 -0.01 0 -0.02 -0.04 0 -0.02 -0.03 0 -0.02 -0.02 0 -0.02 -0.01 0 -0.01 -0.04 0 -0.01 -0.03 0 -0.01 -0.02 0 -0.01 -0.01 0 -0.05 0.05 0 -0.05 0.01 0 -0.05 0.02 0 -0.05 0.03 0 -0.05 0.04 0 0 0.05 0 -0.04 0.05 0 -0.03 0.05 0 -0.02 0.05 0 -0.01 0.05 0 0 0.04 0 0 0.03 0 0 0.02 0 0 0.01 0 -0.04 0.01 0 -0.04 0.02 0 -0.04 0.03 0 -0.04 0.04 0 -0.03 0.01 0 -0.03 0.02 0 -0.03 0.03 0 -0.03 0.04 0 -0.02 0.01 0 -0.02 0.02 0 -0.02 0.03 0 -0.02 0.04 0 -0.01 0.01 0 -0.01 0.02 0 -0.01 0.03 0 -0.01 0.04 0 0.05 0 0 0.01 0 0 0.02 0 0 0.03 0 0 0.04 0 0 0.05 -0.05 0 0.05 -0.01 0 0.05 -0.02 0 0.05 -0.03 0 0.05 -0.04 0 0.04 -0.05 0 0.03 -0.05 0 0.02 -0.05 0 0.01 -0.05 0 0.01 -0.04 0 0.01 -0.03 0 0.01 -0.02 0 0.01 -0.01 0 0.02 -0.04 0 0.02 -0.03 0 0.02 -0.02 0 0.02 -0.01 0 0.03 -0.04 0 0.03 -0.03 0 0.03 -0.02 0 0.03 -0.01 0 0.04 -0.04 0 0.04 -0.03 0 0.04 -0.02 0 0.04 -0.01 0 0.05 0.05 0 0.01 0.05 0 0.02 0.05 0 0.03 0.05 0 0.04 0.05 0 0.05 0.04 0 0.05 0.03 0 0.05 0.02 0 0.05 0.01 0 0.01 0.01 0 0.01 0.02 0 0.01 0.03 0 0.01 0.04 0 0.02 0.01 0 0.02 0.02 0 0.02 0.03 0 0.02 0.04 0 0.03 0.01 0 0.03 0.02 0 0.03 0.03 0 0.03 0.04 0 0.04 0.01 0 0.04 0.02 0 0.04 0.03 0 0.04 0.04 0 
</DataArray>
</Points>
<Cells>
<DataArray Name="connectivity" format="ascii" type="Int64">
0 19 20 2 19 18 24 20 18 17 28 24 17 16 32 28 16 11 15 32 2 20 21 3 20 24 25 21 24 28 29 25 28 32 33 29 32 15 14 33 3 21 22 4 21 25 26 22 25 29 30 26 29 33 34 30 33 14 13 34 4 22 23 5 22 26 27 23 26 30 31 27 30 34 35 31 34 13 12 35 5 23 7 1 23 27 8 7 27 31 9 8 31 35 10 9 35 12 6 10 1 7 50 37 7 8 54 50 8 9 58 54 9 10 62 58 10 6 49 62 37 50 51 38 50 54 55 51 54 58 59 55 58 62 63 59 62 49 48 63 38 51 52 39 51 55 56 52 55 59 60 56 59 63 64 60 63 48 47 64 39 52 53 40 52 56 57 53 56 60 61 57 60 64 65 61 64 47 46 65 40 53 42 36 53 57 43 42 57 61 44 43 61 65 45 44 65 46 41 45 11 79 80 15 79 78 84 80 78 77 88 84 77 76 92 88 76 71 75 92 15 80 81 14 80 84 85 81 84 88 89 85 88 92 93 89 92 75 74 93 14 81 82 13 81 85 86 82 85 89 90 86 89 93 94 90 93 74 73 94 13 82 83 12 82 86 87 83 86 90 91 87 90 94 95 91 94 73 72 95 12 83 67 6 83 87 68 67 87 91 69 68 91 95 70 69 95 72 66 70 6 67 105 49 67 68 109 105 68 69 113 109 69 70 117 113 70 66 104 117 49 105 106 48 105 109 110 106 109 113 114 110 113 117 118 114 117 104 103 118 48 106 107 47 106 110 111 107 110 114 115 111 114 118 119 115 118 103 102 119 47 107 108 46 107 111 112 108 111 115 116 112 115 119 120 116 119 102 101 120 46 108 97 41 108 112 98 97 112 116 99 98 116 120 100 99 120 101 96 100 
</DataArray>
<DataArray Name="offsets" format="ascii" type="Int64">
4 8 12 16 20 24 28 32 36 40 44 48 52 56 60 64 68 72 76 80 84 88 92 96 100 104 108 112 116 120 124 128 132 136 140 144 148 152 156 160 164 168 172 176 180 184 188 192 196 200 204 208 212 216 220 224 228 232 236 240 244 248 252 256 260 264 268 272 276 280 284 288 292 296 300 304 308 312 316 320 324 328 332 336 340 344 348 352 356 360 364 368 372 376 380 384 388 392 396 400 
</DataArray>
<DataArray Name="types" format="ascii" type="Int8">
9 9 9 9 9 9 9 9 9 9 9 9 9 9 9 9 9 9 9 9 9 9 9 9 9 9 9 9 9 9 9 9 9 9 9 9 9 9 9 9 9 9 9 9 9 9 9 9 9 9 9 9 9 9 9 9 9 9 9 9 9 9 9 9 9 9 9 9 9 9 9 9 9 9 9 9 9 9 9 9 9 9 9 9 9 9 9 9 9 9 9 9 9 9 9 9 9 9 9 9 
</DataArray>
</Cells>
</Piece>
</UnstructuredGrid>
</VTKFile>
