<?xml version="1.0"?>
<VTKFile byte_order="LittleEndian" type="UnstructuredGrid" version="0.1">
<UnstructuredGrid>
<Piece NumberOfCells="100" NumberOfPoints="121">
<PointData>
<DataArray Name="Warping_X" format="ascii" type="Float64">
-0.118454 1.08714e-17 -0.094898 -0.0711989 -0.0474761 -0.0237404 5.03859e-18 1.64138e-17 1.951e-17 1.8381e-17 1.17505e-17 -1.13439e-17 7.52617e-18 8.70007e-18 4.58471e-18 -3.53106e-18 -0.0237159 -0.0474289 -0.0711336 -0.0948168 -0.0758993 -0.0569556 -0.0379797 -0.0189924 -0.0569197 -0.0427082 -0.0284816 -0.0142432 -0.0379466 -0.0284682 -0.0189847 -0.00949431 -0.0189735 -0.0142332 -0.00949131 -0.00474662 0.118454 0.0237404 0.0474761 0.0711989 0.094898 -5.689e-18 0.0948168 0.0711336 0.0474289 0.0237159 -4.37559e-18 -2.85627e-18 -1.57798e-18 1.36887e-18 0.0189924 0.0379797 0.0569556 0.0758993 0.0142432 0.0284816 0.0427082 0.0569197 0.00949431 0.0189847 0.0284682 0.0379466 0.00474662 0.00949131 0.0142332 0.0189735 -2.35223e-17 -2.1304e-18 -9.4546e-18 -1.53189e-17 -2.00496e-17 0.118454 0.0237404 0.0474761 0.0711989 0.094898 0.0948168 0.0711336 0.0474289 0.0237159 0.0189735 0.0142332 0.00949131 0.00474662 0.0379466 0.0284682 0.0189847 0.00949431 0.0569197 0.0427082 0.0284816 0.0142432 0.0758993 0.0569556 0.0379797 0.0189924 -0.118454 -0.0237159 -0.0474289 -0.0711336 -0.0948168 -0.094898 -0.0711989 -0.0474761 -0.0237404 -0.00474662 -0.00949131 -0.0142332 -0.0189735 -0.00949431 -0.0189847 -0.0284682 -0.0379466 -0.0142432 -0.0284816 -0.0427082 -0.0569197 -0.0189924 -0.0379797 -0.0569556 -0.0758993 
</DataArray>
<DataArray Name="Warping_Y" format="ascii" type="Float64">
-0.000137289 0.059341 0.0212722 0.0379306 0.0498264 0.0569625 3.96817e-05 0.0379813 0.0213777 0.00952228 0.00241023 -0.0593366 -0.00233439 -0.00945736 -0.0213312 -0.0379575 -0.0569641 -0.0498472 -0.0379882 -0.0213962 -1.79227e-05 0.0166005 0.0284776 0.0356053 -0.0166086 1.19834e-05 0.0118811 0.0190035 -0.0284679 -0.0118438 2.71497e-05 0.00714856 -0.035585 -0.0189591 -0.00708612 3.63286e-05 -0.000137289 0.0569625 0.0498264 0.0379306 0.0212722 -0.0593366 -0.0213962 -0.0379882 -0.0498472 -0.0569641 -0.0379575 -0.0213312 -0.00945736 -0.00233439 0.0356053 0.0284776 0.0166005 -1.79227e-05 0.0190035 0.0118811 1.19834e-05 -0.0166086 0.00714856 2.71497e-05 -0.0118438 -0.0284679 3.63286e-05 -0.00708612 -0.0189591 -0.035585 0.059341 0.00241023 0.00952228 0.0213777 0.0379813 -0.000137289 0.0569625 0.0498264 0.0379306 0.0212722 -0.0213962 -0.0379882 -0.0498472 -0.0569641 -0.035585 -0.0189591 -0.00708612 3.63286e-05 -0.0284679 -0.0118438 2.71497e-05 0.00714856 -0.0166086 1.19834e-05 0.0118811 0.0190035 -1.79227e-05 0.0166005 0.0284776 0.0356053 -0.000137289 -0.0569641 -0.0498472 -0.0379882 -0.0213962 0.0212722 0.0379306 0.0498264 0.0569625 3.63286e-05 -0.00708612 -0.0189591 -0.035585 0.00714856 2.71497e-05 -0.0118438 -0.0284679 0.0190035 0.0118811 1.19834e-05 -0.0166086 0.0356053 0.0284776 0.0166005 -1.79227e-05 
</DataArray>
<DataArray Name="Warping_Z" format="ascii" type="Float64">
0 0 0 0 0 0 0 0 0 0 0 0 0 0 0 0 0 0 0 0 0 0 0 0 0 0 0 0 0 0 0 0 0 0 0 0 0 0 0 0 0 0 0 0 0 0 0 0 0 0 0 0 0 0 0 0 0 0 0 0 0 0 0 0 0 0 0 0 0 0 0 0 0 0 0 0 0 0 0 0 0 0 0 0 0 0 0 0 0 0 0 0 0 0 0 0 0 0 0 0 0 0 0 0 0 0 0 0 0 0 0 0 0 0 0 0 0 0 0 0 0 
</DataArray>
</PointData>
<CellData>
<DataArray Name="MaterialId" format="ascii" type="Float64">
3 3 3 3 3 3 3 3 3 3 3 3 3 3 3 3 3 3 3 3 3 3 3 3 3 3 3 3 3 3 3 3 3 3 3 3 3 3 3 3 3 3 3 3 3 3 3 3 3 3 3 3 3 3 3 3 3 3 3 3 3 3 3 3 3 3 3 3 3 3 3 3 3 3 3 3 3 3 3 3 3 3 3 3 3 3 3 3 3 3 3 3 3 3 3 3 3 3 3 3 
</DataArray>
<DataArray Name="FiberAngle" format="ascii" type="Float64">
0 0 0 0 0 0 0 0 0 0 0 0 0 0 0 0 0 0 0 0 0 0 0 0 0 0 0 0 0 0 0 0 0 0 0 0 0 0 0 0 0 0 0 0 0 0 0 0 0 0 0 0 0 0 0 0 0 0 0 0 0 0 0 0 0 0 0 0 0 0 0 0 0 0 0 0 0 0 0 0 0 0 0 0 0 0 0 0 0 0 0 0 0 0 0 0 0 0 0 0 
</DataArray>
<DataArray Name="Strain_11" format="ascii" type="Float64">
2.13181 2.13314 2.13389 2.1343 2.13447 1.6621 1.66134 1.66066 1.66041 1.66033 1.18698 1.18728 1.18684 1.18642 1.18622 0.712217 0.712366 0.712288 0.712054 0.711897 0.2374 0.237458 0.237445 0.237384 0.237331 -0.2374 -0.237458 -0.237445 -0.237384 -0.237331 -0.712217 -0.712366 -0.712288 -0.712054 -0.711897 -1.18698 -1.18728 -1.18684 -1.18642 -1.18622 -1.6621 -1.66134 -1.66066 -1.66041 -1.66033 -2.13181 -2.13314 -2.13389 -2.1343 -2.13447 2.13447 2.1343 2.13389 2.13314 2.13181 1.66033 1.66041 1.66066 1.66134 1.6621 1.18622 1.18642 1.18684 1.18728 1.18698 0.711897 0.712054 0.712288 0.712366 0.712217 0.237331 0.237384 0.237445 0.237458 0.2374 -0.237331 -0.237384 -0.237445 -0.237458 -0.2374 -0.711897 -0.712054 -0.712288 -0.712366 -0.712217 -1.18622 -1.18642 -1.18684 -1.18728 -1.18698 -1.66033 -1.66041 -1.66066 -1.66134 -1.6621 -2.13447 -2.1343 -2.13389 -2.13314 -2.13181 
</DataArray>
<DataArray Name="Strain_22" format="ascii" type="Float64">
2.13939 2.13789 2.13794 2.13792 2.13791 1.66384 1.66195 1.66224 1.6625 1.66261 1.18864 1.18731 1.187 1.1872 1.18734 0.713189 0.7125 0.712187 0.712193 0.712271 0.237731 0.237516 0.237399 0.237381 0.237398 -0.237731 -0.237516 -0.237399 -0.237381 -0.237398 -0.713189 -0.7125 -0.712187 -0.712193 -0.712271 -1.18864 -1.18731 -1.187 -1.1872 -1.18734 -1.66384 -1.66195 -1.66224 -1.6625 -1.66261 -2.13939 -2.13789 -2.13794 -2.13792 -2.13791 2.13791 2.13792 2.13794 2.13789 2.13939 1.66261 1.6625 1.66224 1.66195 1.66384 1.18734 1.1872 1.187 1.18731 1.18864 0.712271 0.712193 0.712187 0.7125 0.713189 0.237398 0.237381 0.237399 0.237516 0.237731 -0.237398 -0.237381 -0.237399 -0.237516 -0.237731 -0.712271 -0.712193 -0.712187 -0.7125 -0.713189 -1.18734 -1.1872 -1.187 -1.18731 -1.18864 -1.66261 -1.6625 -1.66224 -1.66195 -1.66384 -2.13791 -2.13792 -2.13794 -2.13789 -2.13939 
</DataArray>
<DataArray Name="Strain_12" format="ascii" type="Float64">
-0.00375356 -0.00255973 -0.00111013 -0.000461023 -0.00012588 0.00112264 -0.00120399 -0.00126277 -0.000688755 -0.000208881 0.000989505 0.000877594 2.14018e-05 -0.00016296 -7.0073e-05 0.000851702 0.00137639 0.000993852 0.000480064 0.000136573 0.000789717 0.00150974 0.00135765 0.000832673 0.000268261 0.000789717 0.00150974 0.00135765 0.000832673 0.000268261 0.000851702 0.00137639 0.000993852 0.000480064 0.000136573 0.000989505 0.000877594 2.14018e-05 -0.00016296 -7.0073e-05 0.00112264 -0.00120399 -0.00126277 -0.000688755 -0.000208881 -0.00375356 -0.00255973 -0.00111013 -0.000461023 -0.00012588 0.00012588 0.000461023 0.00111013 0.00255973 0.00375356 0.000208881 0.000688755 0.00126277 0.00120399 -0.00112264 7.0073e-05 0.00016296 -2.14018e-05 -0.000877594 -0.000989505 -0.000136573 -0.000480064 -0.000993852 -0.00137639 -0.000851702 -0.000268261 -0.000832673 -0.00135765 -0.00150974 -0.000789717 -0.000268261 -0.000832673 -0.00135765 -0.00150974 -0.000789717 -0.000136573 -0.000480064 -0.000993852 -0.00137639 -0.000851702 7.0073e-05 0.00016296 -2.14018e-05 -0.000877594 -0.000989505 0.000208881 0.000688755 0.00126277 0.00120399 -0.00112264 0.00012588 0.000461023 0.00111013 0.00255973 0.00375356 
</DataArray>
<DataArray Name="Strain_13" format="ascii" type="Float64">
0 0 0 0 0 0 0 0 0 0 0 0 0 0 0 0 0 0 0 0 0 0 0 0 0 0 0 0 0 0 0 0 0 0 0 0 0 0 0 0 0 0 0 0 0 0 0 0 0 0 0 0 0 0 0 0 0 0 0 0 0 0 0 0 0 0 0 0 0 0 0 0 0 0 0 0 0 0 0 0 0 0 0 0 0 0 0 0 0 0 0 0 0 0 0 0 0 0 0 0 
</DataArray>
<DataArray Name="Strain_23" format="ascii" type="Float64">
0 0 0 0 0 0 0 0 0 0 0 0 0 0 0 0 0 0 0 0 0 0 0 0 0 0 0 0 0 0 0 0 0 0 0 0 0 0 0 0 0 0 0 0 0 0 0 0 0 0 0 0 0 0 0 0 0 0 0 0 0 0 0 0 0 0 0 0 0 0 0 0 0 0 0 0 0 0 0 0 0 0 0 0 0 0 0 0 0 0 0 0 0 0 0 0 0 0 0 0 
</DataArray>
<DataArray Name="Strain_33" format="ascii" type="Float64">
-0.045 -0.045 -0.045 -0.045 -0.045 -0.035 -0.035 -0.035 -0.035 -0.035 -0.025 -0.025 -0.025 -0.025 -0.025 -0.015 -0.015 -0.015 -0.015 -0.015 -0.005 -0.005 -0.005 -0.005 -0.005 0.005 0.005 0.005 0.005 0.005 0.015 0.015 0.015 0.015 0.015 0.025 0.025 0.025 0.025 0.025 0.035 0.035 0.035 0.035 0.035 0.045 0.045 0.045 0.045 0.045 -0.045 -0.045 -0.045 -0.045 -0.045 -0.035 -0.035 -0.035 -0.035 -0.035 -0.025 -0.025 -0.025 -0.025 -0.025 -0.015 -0.015 -0.015 -0.015 -0.015 -0.005 -0.005 -0.005 -0.005 -0.005 0.005 0.005 0.005 0.005 0.005 0.015 0.015 0.015 0.015 0.015 0.025 0.025 0.025 0.025 0.025 0.035 0.035 0.035 0.035 0.035 0.045 0.045 0.045 0.045 0.045 
</DataArray>
<DataArray Name="Stress_11" format="ascii" type="Float64">
353.19 353.31 353.41 353.464 353.485 275.225 275.059 274.979 274.956 274.95 196.565 196.557 196.489 196.441 196.42 117.943 117.938 117.917 117.886 117.869 39.3137 39.3136 39.3077 39.2992 39.2928 -39.3137 -39.3136 -39.3077 -39.2992 -39.2928 -117.943 -117.938 -117.917 -117.886 -117.869 -196.565 -196.557 -196.489 -196.441 -196.42 -275.225 -275.059 -274.979 -274.956 -274.95 -353.19 -353.31 -353.41 -353.464 -353.485 353.485 353.464 353.41 353.31 353.19 274.95 274.956 274.979 275.059 275.225 196.42 196.441 196.489 196.557 196.565 117.869 117.886 117.917 117.938 117.943 39.2928 39.2992 39.3077 39.3136 39.3137 -39.2928 -39.2992 -39.3077 -39.3136 -39.3137 -117.869 -117.886 -117.917 -117.938 -117.943 -196.42 -196.441 -196.489 -196.557 -196.565 -274.95 -274.956 -274.979 -275.059 -275.225 -353.485 -353.464 -353.41 -353.31 -353.19 
</DataArray>
<DataArray Name="Stress_22" format="ascii" type="Float64">
353.912 353.763 353.796 353.808 353.812 275.391 275.117 275.13 275.155 275.167 196.723 196.56 196.504 196.515 196.526 118.036 117.951 117.907 117.9 117.904 39.3452 39.3192 39.3034 39.2988 39.2992 -39.3452 -39.3192 -39.3034 -39.2988 -39.2992 -118.036 -117.951 -117.907 -117.9 -117.904 -196.723 -196.56 -196.504 -196.515 -196.526 -275.391 -275.117 -275.13 -275.155 -275.167 -353.912 -353.763 -353.796 -353.808 -353.812 353.812 353.808 353.796 353.763 353.912 275.167 275.155 275.13 275.117 275.391 196.526 196.515 196.504 196.56 196.723 117.904 117.9 117.907 117.951 118.036 39.2992 39.2988 39.3034 39.3192 39.3452 -39.2992 -39.2988 -39.3034 -39.3192 -39.3452 -117.904 -117.9 -117.907 -117.951 -118.036 -196.526 -196.515 -196.504 -196.56 -196.723 -275.167 -275.155 -275.13 -275.117 -275.391 -353.812 -353.808 -353.796 -353.763 -353.912 
</DataArray>
<DataArray Name="Stress_12" format="ascii" type="Float64">
-0.187678 -0.127986 -0.0555065 -0.0230511 -0.00629402 0.056132 -0.0601995 -0.0631385 -0.0344377 -0.010444 0.0494752 0.0438797 0.00107009 -0.00814798 -0.00350365 0.0425851 0.0688194 0.0496926 0.0240032 0.00682867 0.0394858 0.0754868 0.0678824 0.0416336 0.013413 0.0394858 0.0754868 0.0678824 0.0416336 0.013413 0.0425851 0.0688194 0.0496926 0.0240032 0.00682867 0.0494752 0.0438797 0.00107009 -0.00814798 -0.00350365 0.056132 -0.0601995 -0.0631385 -0.0344377 -0.010444 -0.187678 -0.127986 -0.0555065 -0.0230511 -0.00629402 0.00629402 0.0230511 0.0555065 0.127986 0.187678 0.010444 0.0344377 0.0631385 0.0601995 -0.056132 0.00350365 0.00814798 -0.00107009 -0.0438797 -0.0494752 -0.00682867 -0.0240032 -0.0496926 -0.0688194 -0.0425851 -0.013413 -0.0416336 -0.0678824 -0.0754868 -0.0394858 -0.013413 -0.0416336 -0.0678824 -0.0754868 -0.0394858 -0.00682867 -0.0240032 -0.0496926 -0.0688194 -0.0425851 0.00350365 0.00814798 -0.00107009 -0.0438797 -0.0494752 0.010444 0.0344377 0.0631385 0.0601995 -0.056132 0.00629402 0.0230511 0.0555065 0.127986 0.187678 
</DataArray>
<DataArray Name="Stress_13" format="ascii" type="Float64">
0 0 0 0 0 0 0 0 0 0 0 0 0 0 0 0 0 0 0 0 0 0 0 0 0 0 0 0 0 0 0 0 0 0 0 0 0 0 0 0 0 0 0 0 0 0 0 0 0 0 0 0 0 0 0 0 0 0 0 0 0 0 0 0 0 0 0 0 0 0 0 0 0 0 0 0 0 0 0 0 0 0 0 0 0 0 0 0 0 0 0 0 0 0 0 0 0 0 0 0 
</DataArray>
<DataArray Name="Stress_23" format="ascii" type="Float64">
0 0 0 0 0 0 0 0 0 0 0 0 0 0 0 0 0 0 0 0 0 0 0 0 0 0 0 0 0 0 0 0 0 0 0 0 0 0 0 0 0 0 0 0 0 0 0 0 0 0 0 0 0 0 0 0 0 0 0 0 0 0 0 0 0 0 0 0 0 0 0 0 0 0 0 0 0 0 0 0 0 0 0 0 0 0 0 0 0 0 0 0 0 0 0 0 0 0 0 0 
</DataArray>
<DataArray Name="Stress_33" format="ascii" type="Float64">
112.749 112.744 112.769 112.782 112.787 87.817 87.7334 87.7207 87.7212 87.7224 62.7247 62.6921 62.6688 62.6616 62.6598 37.6359 37.6189 37.6065 37.5993 37.5968 12.5452 12.5402 12.5361 12.5336 12.5325 -12.5452 -12.5402 -12.5361 -12.5336 -12.5325 -37.6359 -37.6189 -37.6065 -37.5993 -37.5968 -62.7247 -62.6921 -62.6688 -62.6616 -62.6598 -87.817 -87.7334 -87.7207 -87.7212 -87.7224 -112.749 -112.744 -112.769 -112.782 -112.787 112.787 112.782 112.769 112.744 112.749 87.7224 87.7212 87.7207 87.7334 87.817 62.6598 62.6616 62.6688 62.6921 62.7247 37.5968 37.5993 37.6065 37.6189 37.6359 12.5325 12.5336 12.5361 12.5402 12.5452 -12.5325 -12.5336 -12.5361 -12.5402 -12.5452 -37.5968 -37.5993 -37.6065 -37.6189 -37.6359 -62.6598 -62.6616 -62.6688 -62.6921 -62.7247 -87.7224 -87.7212 -87.7207 -87.7334 -87.817 -112.787 -112.782 -112.769 -112.744 -112.749 
</DataArray>
</CellData>
<Points>
<DataArray NumberOfComponents="3" format="ascii" type="Float64">
-0.05 -0.05 0 -0.05 0 0 -0.05 -0.04 0 -0.05 -0.03 0 -0.05 -0.02 0 -0.05 -0.01 0 0 0 0 -0.04 0 0 -0.03 0 0 -0.02 0 0 -0.01 0 0 0 -0.05 0 0 -0.01 0 0 -0.02 0 0 -0.03 0 0 -0.04 0 -0.01 -0.05 0 -0.02 -0.05 0 -0.03 -0.05 0 -0.04 -0.05 0 -0.04 -0.04 0 -0.04 -0.03 0 -0.04 -0.02 0 -0.04 -0.01 0 -0.03 -0.04 0 -0.03 -0.03 0 -0.03 -0.02 0 -0.03 -0.01 0 -0.02 -0.04 0 -0.02 -0.03 0 -0.02 -0.02 0 -0.02 -0.01 0 -0.01 -0.04 0 -0.01 -0.03 0 -0.01 -0.02 0 -0.01 -0.01 0 -0.05 0.05 0 -0.05 0.01 0 -0.05 0.02 0 -0.05 0.03 0 -0.05 0.04 0 0 0.05 0 -0.04 0.05 0 -0.03 0.05 0 -0.02 0.05 0 -0.01 0.05 0 0 0.04 0 0 0.03 0 0 0.02 0 0 0.01 0 -0.04 0.01 0 -0.04 0.02 0 -0.04 0.03 0 -0.04 0.04 0 -0.03 0.01 0 -0.03 0.02 0 -0.03 0.03 0 -0.03 0.04 0 -0.02 0.01 0 -0.02 0.02 0 -0.02 0.03 0 -0.02 0.04 0 -0.01 0.01 0 -0.01 0.02 0 -0.01 0.03 0 -0.01 0.04 0 0.05 0 0 0.01 0 0 0.02 0 0 0.03 0 0 0.04 0 0 0.05 -0.05 0 0.05 -0.01 0 0.05 -0.02 0 0.05 -0.03 0 0.05 -0.04 0 0.04 -0.05 0 0.03 -0.05 0 0.02 -0.05 0 0.01 -0.05 0 0.01 -0.04 0 0.01 -0.03 0 0.01 -0.02 0 0.01 -0.01 0 0.02 -0.04 0 0.02 -0.03 0 0.02 -0.02 0 0.02 -0.01 0 0.03 -0.04 0 0.03 -0.03 0 0.03 -0.02 0 0.03 -0.01 0 0.04 -0.04 0 0.04 -0.03 0 0.04 -0.02 0 0.04 -0.01 0 0.05 0.05 0 0.01 0.05 0 0.02 0.05 0 0.03 0.05 0 0.04 0.05 0 0.05 0.04 0 0.05 0.03 0 0.05 0.02 0 0.05 0.01 0 0.01 0.01 0 0.01 0.02 0 0.01 0.03 0 0.01 0.04 0 0.02 0.01 0 0.02 0.02 0 0.02 0.03 0 0.02 0.04 0 0.03 0.01 0 0.03 0.02 0 0.03 0.03 0 0.03 0.04 0 0.04 0.01 0 0.04 0.02 0 0.04 0.03 0 0.04 0.04 0 
</DataArray>
</Points>
<Cells>
<DataArray Name="connectivity" format="ascii" type="Int64">
0 19 20 2 19 18 24 20 18 17 28 24 17 16 32 28 16 11 15 32 2 20 21 3 20 24 25 21 24 28 29 25 28 32 33 29 32 15 14 33 3 21 22 4 21 25 26 22 25 29 30 26 29 33 34 30 33 14 13 34 4 22 23 5 22 26 27 23 26 30 31 27 30 34 35 31 34 13 12 35 5 23 7 1 23 27 8 7 27 31 9 8 31 35 10 9 35 12 6 10 1 7 50 37 7 8 54 50 8 9 58 54 9 10 62 58 10 6 49 62 37 50 51 38 50 54 55 51 54 58 59 55 58 62 63 59 62 49 48 63 38 51 52 39 51 55 56 52 55 59 60 56 59 63 64 60 63 48 47 64 39 52 53 40 52 56 57 53 56 60 61 57 60 64 65 61 64 47 46 65 40 53 42 36 53 57 43 42 57 61 44 43 61 65 45 44 65 46 41 45 11 79 80 15 79 78 84 80 78 77 88 84 77 76 92 88 76 71 75 92 15 80 81 14 80 84 85 81 84 88 89 85 88 92 93 89 92 75 74 93 14 81 82 13 81 85 86 82 85 89 90 86 89 93 94 90 93 74 73 94 13 82 83 12 82 86 87 83 86 90 91 87 90 94 95 91 94 73 72 95 12 83 67 6 83 87 68 67 87 91 69 68 91 95 70 69 95 72 66 70 6 67 105 49 67 68 109 105 68 69 113 109 69 70 117 113 70 66 104 117 49 105 106 48 105 109 110 106 109 113 114 110 113 117 118 114 117 104 103 118 48 106 107 47 106 110 111 107 110 114 115 111 114 118 119 115 118 103 102 119 47 107 108 46 107 111 112 108 111 115 116 112 115 119 120 116 119 102 101 120 46 108 97 41 108 112 98 97 112 116 99 98 116 120 100 99 120 101 96 100 
</DataArray>
<DataArray Name="offsets" format="ascii" type="Int64">
4 8 12 16 20 24 28 32 36 40 44 48 52 56 60 64 68 72 76 80 84 88 92 96 100 104 108 112 116 120 124 128 132 136 140 144 148 152 156 160 164 168 172 176 180 184 188 192 196 200 204 208 212 216 220 224 228 232 236 240 244 248 252 256 260 264 268 272 276 280 284 288 292 296 300 304 308 312 316 320 324 328 332 336 340 344 348 352 356 360 364 368 372 376 380 384 388 392 396 400 
</DataArray>
<DataArray Name="types" format="ascii" type="Int8">
9 9 9 9 9 9 9 9 9 9 9 9 9 9 9 9 9 9 9 9 9 9 9 9 9 9 9 9 9 9 9 9 9 9 9 9 9 9 9 9 9 9 9 9 9 9 9 9 9 9 9 9 9 9 9 9 9 9 9 9 9 9 9 9 9 9 9 9 9 9 9 9 9 9 9 9 9 9 9 9 9 9 9 9 9 9 9 9 9 9 9 9 9 9 9 9 9 9 9 9 
</DataArray>
</Cells>
</Piece>
</UnstructuredGrid>
</VTKFile>
