<?xml version="1.0"?>
<VTKFile byte_order="LittleEndian" type="UnstructuredGrid" version="0.1">
<UnstructuredGrid>
<Piece NumberOfCells="288" NumberOfPoints="384">
<PointData>
<DataArray Name="Warping_X" format="ascii" type="Float64">
0 0 0 0 0 0 0 0 0 0 0 0 0 0 0 0 0 0 0 0 0 0 0 0 0 0 0 0 0 0 0 0 0 0 0 0 0 0 0 0 0 0 0 0 0 0 0 0 0 0 0 0 0 0 0 0 0 0 0 0 0 0 0 0 0 0 0 0 0 0 0 0 0 0 0 0 0 0 0 0 0 0 0 0 0 0 0 0 0 0 0 0 0 0 0 0 0 0 0 0 0 0 0 0 0 0 0 0 0 0 0 0 0 0 0 0 0 0 0 0 0 0 0 0 0 0 0 0 0 0 0 0 0 0 0 0 0 0 0 0 0 0 0 0 0 0 0 0 0 0 0 0 0 0 0 0 0 0 0 0 0 0 0 0 0 0 0 0 0 0 0 0 0 0 0 0 0 0 0 0 0 0 0 0 0 0 0 0 0 0 0 0 0 0 0 0 0 0 0 0 0 0 0 0 0 0 0 0 0 0 0 0 0 0 0 0 0 0 0 0 0 0 0 0 0 0 0 0 0 0 0 0 0 0 0 0 0 0 0 0 0 0 0 0 0 0 0 0 0 0 0 0 0 0 0 0 0 0 0 0 0 0 0 0 0 0 0 0 0 0 0 0 0 0 0 0 0 0 0 0 0 0 0 0 0 0 0 0 0 0 0 0 0 0 0 0 0 0 0 0 0 0 0 0 0 0 0 0 0 0 0 0 0 0 0 0 0 0 0 0 0 0 0 0 0 0 0 0 0 0 0 0 0 0 0 0 0 0 0 0 0 0 0 0 0 0 0 0 0 0 0 0 0 0 0 0 0 0 0 0 0 0 0 0 0 0 0 0 0 0 0 0 0 0 0 0 0 0 0 0 0 0 0 0 
</DataArray>
<DataArray Name="Warping_Y" format="ascii" type="Float64">
0 0 0 0 0 0 0 0 0 0 0 0 0 0 0 0 0 0 0 0 0 0 0 0 0 0 0 0 0 0 0 0 0 0 0 0 0 0 0 0 0 0 0 0 0 0 0 0 0 0 0 0 0 0 0 0 0 0 0 0 0 0 0 0 0 0 0 0 0 0 0 0 0 0 0 0 0 0 0 0 0 0 0 0 0 0 0 0 0 0 0 0 0 0 0 0 0 0 0 0 0 0 0 0 0 0 0 0 0 0 0 0 0 0 0 0 0 0 0 0 0 0 0 0 0 0 0 0 0 0 0 0 0 0 0 0 0 0 0 0 0 0 0 0 0 0 0 0 0 0 0 0 0 0 0 0 0 0 0 0 0 0 0 0 0 0 0 0 0 0 0 0 0 0 0 0 0 0 0 0 0 0 0 0 0 0 0 0 0 0 0 0 0 0 0 0 0 0 0 0 0 0 0 0 0 0 0 0 0 0 0 0 0 0 0 0 0 0 0 0 0 0 0 0 0 0 0 0 0 0 0 0 0 0 0 0 0 0 0 0 0 0 0 0 0 0 0 0 0 0 0 0 0 0 0 0 0 0 0 0 0 0 0 0 0 0 0 0 0 0 0 0 0 0 0 0 0 0 0 0 0 0 0 0 0 0 0 0 0 0 0 0 0 0 0 0 0 0 0 0 0 0 0 0 0 0 0 0 0 0 0 0 0 0 0 0 0 0 0 0 0 0 0 0 0 0 0 0 0 0 0 0 0 0 0 0 0 0 0 0 0 0 0 0 0 0 0 0 0 0 0 0 0 0 0 0 0 0 0 0 0 0 0 0 0 0 0 0 0 0 0 0 0 0 0 0 0 0 0 0 0 0 0 0 
</DataArray>
<DataArray Name="Warping_Z" format="ascii" type="Float64">
0 0 0 0 0 0 0 0 0 0 0 0 0 0 0 0 0 0 0 0 0 0 0 0 0 0 0 0 0 0 0 0 0 0 0 0 0 0 0 0 0 0 0 0 0 0 0 0 0 0 0 0 0 0 0 0 0 0 0 0 0 0 0 0 0 0 0 0 0 0 0 0 0 0 0 0 0 0 0 0 0 0 0 0 0 0 0 0 0 0 0 0 0 0 0 0 0 0 0 0 0 0 0 0 0 0 0 0 0 0 0 0 0 0 0 0 0 0 0 0 0 0 0 0 0 0 0 0 0 0 0 0 0 0 0 0 0 0 0 0 0 0 0 0 0 0 0 0 0 0 0 0 0 0 0 0 0 0 0 0 0 0 0 0 0 0 0 0 0 0 0 0 0 0 0 0 0 0 0 0 0 0 0 0 0 0 0 0 0 0 0 0 0 0 0 0 0 0 0 0 0 0 0 0 0 0 0 0 0 0 0 0 0 0 0 0 0 0 0 0 0 0 0 0 0 0 0 0 0 0 0 0 0 0 0 0 0 0 0 0 0 0 0 0 0 0 0 0 0 0 0 0 0 0 0 0 0 0 0 0 0 0 0 0 0 0 0 0 0 0 0 0 0 0 0 0 0 0 0 0 0 0 0 0 0 0 0 0 0 0 0 0 0 0 0 0 0 0 0 0 0 0 0 0 0 0 0 0 0 0 0 0 0 0 0 0 0 0 0 0 0 0 0 0 0 0 0 0 0 0 0 0 0 0 0 0 0 0 0 0 0 0 0 0 0 0 0 0 0 0 0 0 0 0 0 0 0 0 0 0 0 0 0 0 0 0 0 0 0 0 0 0 0 0 0 0 0 0 0 0 0 0 0 0 
</DataArray>
</PointData>
<CellData>
<DataArray Name="MaterialId" format="ascii" type="Float64">
1 1 1 1 1 1 1 1 1 1 1 1 2 2 2 2 2 2 2 2 2 2 2 2 1 1 1 1 1 1 1 1 1 1 1 1 1 1 1 1 1 1 1 1 1 1 1 1 2 2 2 2 2 2 2 2 2 2 2 2 1 1 1 1 1 1 1 1 1 1 1 1 1 1 1 1 1 1 1 1 1 1 1 1 2 2 2 2 2 2 2 2 2 2 2 2 1 1 1 1 1 1 1 1 1 1 1 1 1 1 1 1 1 1 1 1 1 1 1 1 2 2 2 2 2 2 2 2 2 2 2 2 1 1 1 1 1 1 1 1 1 1 1 1 1 1 1 1 1 1 1 1 1 1 1 1 2 2 2 2 2 2 2 2 2 2 2 2 1 1 1 1 1 1 1 1 1 1 1 1 1 1 1 1 1 1 1 1 1 1 1 1 2 2 2 2 2 2 2 2 2 2 2 2 1 1 1 1 1 1 1 1 1 1 1 1 1 1 1 1 1 1 1 1 1 1 1 1 2 2 2 2 2 2 2 2 2 2 2 2 1 1 1 1 1 1 1 1 1 1 1 1 1 1 1 1 1 1 1 1 1 1 1 1 2 2 2 2 2 2 2 2 2 2 2 2 1 1 1 1 1 1 1 1 1 1 1 1 
</DataArray>
<DataArray Name="FiberAngle" format="ascii" type="Float64">
0 0 0 0 0 0 0 0 0 0 0 0 0 0 0 0 0 0 0 0 0 0 0 0 0 0 0 0 0 0 0 0 0 0 0 0 0 0 0 0 0 0 0 0 0 0 0 0 0 0 0 0 0 0 0 0 0 0 0 0 0 0 0 0 0 0 0 0 0 0 0 0 0 0 0 0 0 0 0 0 0 0 0 0 0 0 0 0 0 0 0 0 0 0 0 0 0 0 0 0 0 0 0 0 0 0 0 0 0 0 0 0 0 0 0 0 0 0 0 0 0 0 0 0 0 0 0 0 0 0 0 0 0 0 0 0 0 0 0 0 0 0 0 0 0 0 0 0 0 0 0 0 0 0 0 0 0 0 0 0 0 0 0 0 0 0 0 0 0 0 0 0 0 0 0 0 0 0 0 0 0 0 0 0 0 0 0 0 0 0 0 0 0 0 0 0 0 0 0 0 0 0 0 0 0 0 0 0 0 0 0 0 0 0 0 0 0 0 0 0 0 0 0 0 0 0 0 0 0 0 0 0 0 0 0 0 0 0 0 0 0 0 0 0 0 0 0 0 0 0 0 0 0 0 0 0 0 0 0 0 0 0 0 0 0 0 0 0 0 0 0 0 0 0 0 0 0 0 0 0 0 0 0 0 0 0 0 0 
</DataArray>
<DataArray Name="Strain_11" format="ascii" type="Float64">
0 0 0 0 0 0 0 0 0 0 0 0 0 0 0 0 0 0 0 0 0 0 0 0 0 0 0 0 0 0 0 0 0 0 0 0 0 0 0 0 0 0 0 0 0 0 0 0 0 0 0 0 0 0 0 0 0 0 0 0 0 0 0 0 0 0 0 0 0 0 0 0 0 0 0 0 0 0 0 0 0 0 0 0 0 0 0 0 0 0 0 0 0 0 0 0 0 0 0 0 0 0 0 0 0 0 0 0 0 0 0 0 0 0 0 0 0 0 0 0 0 0 0 0 0 0 0 0 0 0 0 0 0 0 0 0 0 0 0 0 0 0 0 0 0 0 0 0 0 0 0 0 0 0 0 0 0 0 0 0 0 0 0 0 0 0 0 0 0 0 0 0 0 0 0 0 0 0 0 0 0 0 0 0 0 0 0 0 0 0 0 0 0 0 0 0 0 0 0 0 0 0 0 0 0 0 0 0 0 0 0 0 0 0 0 0 0 0 0 0 0 0 0 0 0 0 0 0 0 0 0 0 0 0 0 0 0 0 0 0 0 0 0 0 0 0 0 0 0 0 0 0 0 0 0 0 0 0 0 0 0 0 0 0 0 0 0 0 0 0 0 0 0 0 0 0 0 0 0 0 0 0 0 0 0 0 0 0 
</DataArray>
<DataArray Name="Strain_22" format="ascii" type="Float64">
0 0 0 0 0 0 0 0 0 0 0 0 0 0 0 0 0 0 0 0 0 0 0 0 0 0 0 0 0 0 0 0 0 0 0 0 0 0 0 0 0 0 0 0 0 0 0 0 0 0 0 0 0 0 0 0 0 0 0 0 0 0 0 0 0 0 0 0 0 0 0 0 0 0 0 0 0 0 0 0 0 0 0 0 0 0 0 0 0 0 0 0 0 0 0 0 0 0 0 0 0 0 0 0 0 0 0 0 0 0 0 0 0 0 0 0 0 0 0 0 0 0 0 0 0 0 0 0 0 0 0 0 0 0 0 0 0 0 0 0 0 0 0 0 0 0 0 0 0 0 0 0 0 0 0 0 0 0 0 0 0 0 0 0 0 0 0 0 0 0 0 0 0 0 0 0 0 0 0 0 0 0 0 0 0 0 0 0 0 0 0 0 0 0 0 0 0 0 0 0 0 0 0 0 0 0 0 0 0 0 0 0 0 0 0 0 0 0 0 0 0 0 0 0 0 0 0 0 0 0 0 0 0 0 0 0 0 0 0 0 0 0 0 0 0 0 0 0 0 0 0 0 0 0 0 0 0 0 0 0 0 0 0 0 0 0 0 0 0 0 0 0 0 0 0 0 0 0 0 0 0 0 0 0 0 0 0 0 
</DataArray>
<DataArray Name="Strain_12" format="ascii" type="Float64">
0 0 0 0 0 0 0 0 0 0 0 0 0 0 0 0 0 0 0 0 0 0 0 0 0 0 0 0 0 0 0 0 0 0 0 0 0 0 0 0 0 0 0 0 0 0 0 0 0 0 0 0 0 0 0 0 0 0 0 0 0 0 0 0 0 0 0 0 0 0 0 0 0 0 0 0 0 0 0 0 0 0 0 0 0 0 0 0 0 0 0 0 0 0 0 0 0 0 0 0 0 0 0 0 0 0 0 0 0 0 0 0 0 0 0 0 0 0 0 0 0 0 0 0 0 0 0 0 0 0 0 0 0 0 0 0 0 0 0 0 0 0 0 0 0 0 0 0 0 0 0 0 0 0 0 0 0 0 0 0 0 0 0 0 0 0 0 0 0 0 0 0 0 0 0 0 0 0 0 0 0 0 0 0 0 0 0 0 0 0 0 0 0 0 0 0 0 0 0 0 0 0 0 0 0 0 0 0 0 0 0 0 0 0 0 0 0 0 0 0 0 0 0 0 0 0 0 0 0 0 0 0 0 0 0 0 0 0 0 0 0 0 0 0 0 0 0 0 0 0 0 0 0 0 0 0 0 0 0 0 0 0 0 0 0 0 0 0 0 0 0 0 0 0 0 0 0 0 0 0 0 0 0 0 0 0 0 0 
</DataArray>
<DataArray Name="Strain_13" format="ascii" type="Float64">
-0.0947151 -0.0898766 -0.0900207 -0.0895431 -0.0907372 -0.0876694 -0.0856895 -0.0806304 -0.0698393 -0.074914 -0.0742795 -0.0660044 -0.0987538 -0.099711 -0.096037 -0.0911114 -0.0915177 -0.0860401 -0.0856325 -0.0825861 -0.0710832 -0.0730219 -0.0724204 -0.0668578 -0.102134 -0.106501 -0.0976625 -0.0858262 -0.0918634 -0.0911293 -0.0939428 -0.0880861 -0.0745542 -0.0802654 -0.0810216 -0.0719637 -0.0604768 -0.0580467 -0.0513552 -0.0437529 -0.0445641 -0.0396068 -0.0320167 -0.0262097 -0.0220809 -0.013952 -0.00652866 -0.00288437 -0.0653302 -0.0663367 -0.0596991 -0.0489858 -0.0503048 -0.0483665 -0.0404533 -0.0294256 -0.00776689 0.0061832 0.0013548 -0.00198261 -0.0649938 -0.0622691 -0.0570782 -0.0491811 -0.0466437 -0.0407766 -0.0359894 -0.0295445 -0.0188419 -0.0150439 -0.0113697 -0.00411845 0.00288437 0.00652866 0.013952 0.0220809 0.0262097 0.0320167 0.0396068 0.0445641 0.0437529 0.0513552 0.0580467 0.0604768 0.00198261 -0.0013548 -0.0061832 0.00776689 0.0294256 0.0404533 0.0483665 0.0503048 0.0489858 0.0596991 0.0663367 0.0653302 0.00411845 0.0113697 0.0150439 0.0188419 0.0295445 0.0359894 0.0407766 0.0466437 0.0491811 0.0570782 0.0622691 0.0649938 0.0660044 0.0742795 0.074914 0.0698393 0.0806304 0.0856895 0.0876694 0.0907372 0.0895431 0.0900207 0.0898766 0.0947151 0.0668578 0.0724204 0.0730219 0.0710832 0.0825861 0.0856325 0.0860401 0.0915177 0.0911114 0.096037 0.099711 0.0987538 0.0719637 0.0810216 0.0802654 0.0745542 0.0880861 0.0939428 0.0911293 0.0918634 0.0858262 0.0976625 0.106501 0.102134 0.0947151 0.0898766 0.0900207 0.0895431 0.0907372 0.0876694 0.0856895 0.0806304 0.0698393 0.074914 0.0742795 0.0660044 0.0987538 0.099711 0.096037 0.0911114 0.0915177 0.0860401 0.0856325 0.0825861 0.0710832 0.0730219 0.0724204 0.0668578 0.102134 0.106501 0.0976625 0.0858262 0.0918634 0.0911293 0.0939428 0.0880861 0.0745542 0.0802654 0.0810216 0.0719637 0.0604768 0.0580467 0.0513552 0.0437529 0.0445641 0.0396068 0.0320167 0.0262097 0.0220809 0.013952 0.00652866 0.00288437 0.0653302 0.0663367 0.0596991 0.0489858 0.0503048 0.0483665 0.0404533 0.0294256 0.00776689 -0.0061832 -0.0013548 0.00198261 0.0649938 0.0622691 0.0570782 0.0491811 0.0466437 0.0407766 0.0359894 0.0295445 0.0188419 0.0150439 0.0113697 0.00411845 -0.00288437 -0.00652866 -0.013952 -0.0220809 -0.0262097 -0.0320167 -0.0396068 -0.0445641 -0.0437529 -0.0513552 -0.0580467 -0.0604768 -0.00198261 0.0013548 0.0061832 -0.00776689 -0.0294256 -0.0404533 -0.0483665 -0.0503048 -0.0489858 -0.0596991 -0.0663367 -0.0653302 -0.00411845 -0.0113697 -0.0150439 -0.0188419 -0.0295445 -0.0359894 -0.0407766 -0.0466437 -0.0491811 -0.0570782 -0.0622691 -0.0649938 -0.0660044 -0.0742795 -0.074914 -0.0698393 -0.0806304 -0.0856895 -0.0876694 -0.0907372 -0.0895431 -0.0900207 -0.0898766 -0.0947151 -0.0668578 -0.0724204 -0.0730219 -0.0710832 -0.0825861 -0.0856325 -0.0860401 -0.0915177 -0.0911114 -0.096037 -0.099711 -0.0987538 -0.0719637 -0.0810216 -0.0802654 -0.0745542 -0.0880861 -0.0939428 -0.0911293 -0.0918634 -0.0858262 -0.0976625 -0.106501 -0.102134 
</DataArray>
<DataArray Name="Strain_23" format="ascii" type="Float64">
-0.00288437 -0.00652866 -0.013952 -0.0220809 -0.0262097 -0.0320167 -0.0396068 -0.0445641 -0.0437529 -0.0513552 -0.0580467 -0.0604768 -0.00198261 0.0013548 0.0061832 -0.00776689 -0.0294256 -0.0404533 -0.0483665 -0.0503048 -0.0489858 -0.0596991 -0.0663367 -0.0653302 -0.00411845 -0.0113697 -0.0150439 -0.0188419 -0.0295445 -0.0359894 -0.0407766 -0.0466437 -0.0491811 -0.0570782 -0.0622691 -0.0649938 -0.0660044 -0.0742795 -0.074914 -0.0698393 -0.0806304 -0.0856895 -0.0876694 -0.0907372 -0.0895431 -0.0900207 -0.0898766 -0.0947151 -0.0668578 -0.0724204 -0.0730219 -0.0710832 -0.0825861 -0.0856325 -0.0860401 -0.0915177 -0.0911114 -0.096037 -0.099711 -0.0987538 -0.0719637 -0.0810216 -0.0802654 -0.0745542 -0.0880861 -0.0939428 -0.0911293 -0.0918634 -0.0858262 -0.0976625 -0.106501 -0.102134 -0.0947151 -0.0898766 -0.0900207 -0.0895431 -0.0907372 -0.0876694 -0.0856895 -0.0806304 -0.0698393 -0.074914 -0.0742795 -0.0660044 -0.0987538 -0.099711 -0.096037 -0.0911114 -0.0915177 -0.0860401 -0.0856325 -0.0825861 -0.0710832 -0.0730219 -0.0724204 -0.0668578 -0.102134 -0.106501 -0.0976625 -0.0858262 -0.0918634 -0.0911293 -0.0939428 -0.0880861 -0.0745542 -0.0802654 -0.0810216 -0.0719637 -0.0604768 -0.0580467 -0.0513552 -0.0437529 -0.0445641 -0.0396068 -0.0320167 -0.0262097 -0.0220809 -0.013952 -0.00652866 -0.00288437 -0.0653302 -0.0663367 -0.0596991 -0.0489858 -0.0503048 -0.0483665 -0.0404533 -0.0294256 -0.00776689 0.0061832 0.0013548 -0.00198261 -0.0649938 -0.0622691 -0.0570782 -0.0491811 -0.0466437 -0.0407766 -0.0359894 -0.0295445 -0.0188419 -0.0150439 -0.0113697 -0.00411845 0.00288437 0.00652866 0.013952 0.0220809 0.0262097 0.0320167 0.0396068 0.0445641 0.0437529 0.0513552 0.0580467 0.0604768 0.00198261 -0.0013548 -0.0061832 0.00776689 0.0294256 0.0404533 0.0483665 0.0503048 0.0489858 0.0596991 0.0663367 0.0653302 0.00411845 0.0113697 0.0150439 0.0188419 0.0295445 0.0359894 0.0407766 0.0466437 0.0491811 0.0570782 0.0622691 0.0649938 0.0660044 0.0742795 0.074914 0.0698393 0.0806304 0.0856895 0.0876694 0.0907372 0.0895431 0.0900207 0.0898766 0.0947151 0.0668578 0.0724204 0.0730219 0.0710832 0.0825861 0.0856325 0.0860401 0.0915177 0.0911114 0.096037 0.099711 0.0987538 0.0719637 0.0810216 0.0802654 0.0745542 0.0880861 0.0939428 0.0911293 0.0918634 0.0858262 0.0976625 0.106501 0.102134 0.0947151 0.0898766 0.0900207 0.0895431 0.0907372 0.0876694 0.0856895 0.0806304 0.0698393 0.074914 0.0742795 0.0660044 0.0987538 0.099711 0.096037 0.0911114 0.0915177 0.0860401 0.0856325 0.0825861 0.0710832 0.0730219 0.0724204 0.0668578 0.102134 0.106501 0.0976625 0.0858262 0.0918634 0.0911293 0.0939428 0.0880861 0.0745542 0.0802654 0.0810216 0.0719637 0.0604768 0.0580467 0.0513552 0.0437529 0.0445641 0.0396068 0.0320167 0.0262097 0.0220809 0.013952 0.00652866 0.00288437 0.0653302 0.0663367 0.0596991 0.0489858 0.0503048 0.0483665 0.0404533 0.0294256 0.00776689 -0.0061832 -0.0013548 0.00198261 0.0649938 0.0622691 0.0570782 0.0491811 0.0466437 0.0407766 0.0359894 0.0295445 0.0188419 0.0150439 0.0113697 0.00411845 
</DataArray>
<DataArray Name="Strain_33" format="ascii" type="Float64">
0 0 0 0 0 0 0 0 0 0 0 0 0 0 0 0 0 0 0 0 0 0 0 0 0 0 0 0 0 0 0 0 0 0 0 0 0 0 0 0 0 0 0 0 0 0 0 0 0 0 0 0 0 0 0 0 0 0 0 0 0 0 0 0 0 0 0 0 0 0 0 0 0 0 0 0 0 0 0 0 0 0 0 0 0 0 0 0 0 0 0 0 0 0 0 0 0 0 0 0 0 0 0 0 0 0 0 0 0 0 0 0 0 0 0 0 0 0 0 0 0 0 0 0 0 0 0 0 0 0 0 0 0 0 0 0 0 0 0 0 0 0 0 0 0 0 0 0 0 0 0 0 0 0 0 0 0 0 0 0 0 0 0 0 0 0 0 0 0 0 0 0 0 0 0 0 0 0 0 0 0 0 0 0 0 0 0 0 0 0 0 0 0 0 0 0 0 0 0 0 0 0 0 0 0 0 0 0 0 0 0 0 0 0 0 0 0 0 0 0 0 0 0 0 0 0 0 0 0 0 0 0 0 0 0 0 0 0 0 0 0 0 0 0 0 0 0 0 0 0 0 0 0 0 0 0 0 0 0 0 0 0 0 0 0 0 0 0 0 0 0 0 0 0 0 0 0 0 0 0 0 0 0 0 0 0 0 0 
</DataArray>
<DataArray Name="Stress_11" format="ascii" type="Float64">
0 0 0 0 0 0 0 0 0 0 0 0 0 0 0 0 0 0 0 0 0 0 0 0 0 0 0 0 0 0 0 0 0 0 0 0 0 0 0 0 0 0 0 0 0 0 0 0 0 0 0 0 0 0 0 0 0 0 0 0 0 0 0 0 0 0 0 0 0 0 0 0 0 0 0 0 0 0 0 0 0 0 0 0 0 0 0 0 0 0 0 0 0 0 0 0 0 0 0 0 0 0 0 0 0 0 0 0 0 0 0 0 0 0 0 0 0 0 0 0 0 0 0 0 0 0 0 0 0 0 0 0 0 0 0 0 0 0 0 0 0 0 0 0 0 0 0 0 0 0 0 0 0 0 0 0 0 0 0 0 0 0 0 0 0 0 0 0 0 0 0 0 0 0 0 0 0 0 0 0 0 0 0 0 0 0 0 0 0 0 0 0 0 0 0 0 0 0 0 0 0 0 0 0 0 0 0 0 0 0 0 0 0 0 0 0 0 0 0 0 0 0 0 0 0 0 0 0 0 0 0 0 0 0 0 0 0 0 0 0 0 0 0 0 0 0 0 0 0 0 0 0 0 0 0 0 0 0 0 0 0 0 0 0 0 0 0 0 0 0 0 0 0 0 0 0 0 0 0 0 0 0 0 0 0 0 0 0 
</DataArray>
<DataArray Name="Stress_22" format="ascii" type="Float64">
0 0 0 0 0 0 0 0 0 0 0 0 0 0 0 0 0 0 0 0 0 0 0 0 0 0 0 0 0 0 0 0 0 0 0 0 0 0 0 0 0 0 0 0 0 0 0 0 0 0 0 0 0 0 0 0 0 0 0 0 0 0 0 0 0 0 0 0 0 0 0 0 0 0 0 0 0 0 0 0 0 0 0 0 0 0 0 0 0 0 0 0 0 0 0 0 0 0 0 0 0 0 0 0 0 0 0 0 0 0 0 0 0 0 0 0 0 0 0 0 0 0 0 0 0 0 0 0 0 0 0 0 0 0 0 0 0 0 0 0 0 0 0 0 0 0 0 0 0 0 0 0 0 0 0 0 0 0 0 0 0 0 0 0 0 0 0 0 0 0 0 0 0 0 0 0 0 0 0 0 0 0 0 0 0 0 0 0 0 0 0 0 0 0 0 0 0 0 0 0 0 0 0 0 0 0 0 0 0 0 0 0 0 0 0 0 0 0 0 0 0 0 0 0 0 0 0 0 0 0 0 0 0 0 0 0 0 0 0 0 0 0 0 0 0 0 0 0 0 0 0 0 0 0 0 0 0 0 0 0 0 0 0 0 0 0 0 0 0 0 0 0 0 0 0 0 0 0 0 0 0 0 0 0 0 0 0 0 
</DataArray>
<DataArray Name="Stress_12" format="ascii" type="Float64">
0 0 0 0 0 0 0 0 0 0 0 0 0 0 0 0 0 0 0 0 0 0 0 0 0 0 0 0 0 0 0 0 0 0 0 0 0 0 0 0 0 0 0 0 0 0 0 0 0 0 0 0 0 0 0 0 0 0 0 0 0 0 0 0 0 0 0 0 0 0 0 0 0 0 0 0 0 0 0 0 0 0 0 0 0 0 0 0 0 0 0 0 0 0 0 0 0 0 0 0 0 0 0 0 0 0 0 0 0 0 0 0 0 0 0 0 0 0 0 0 0 0 0 0 0 0 0 0 0 0 0 0 0 0 0 0 0 0 0 0 0 0 0 0 0 0 0 0 0 0 0 0 0 0 0 0 0 0 0 0 0 0 0 0 0 0 0 0 0 0 0 0 0 0 0 0 0 0 0 0 0 0 0 0 0 0 0 0 0 0 0 0 0 0 0 0 0 0 0 0 0 0 0 0 0 0 0 0 0 0 0 0 0 0 0 0 0 0 0 0 0 0 0 0 0 0 0 0 0 0 0 0 0 0 0 0 0 0 0 0 0 0 0 0 0 0 0 0 0 0 0 0 0 0 0 0 0 0 0 0 0 0 0 0 0 0 0 0 0 0 0 0 0 0 0 0 0 0 0 0 0 0 0 0 0 0 0 0 
</DataArray>
<DataArray Name="Stress_13" format="ascii" type="Float64">
-3.94649 -3.74489 -3.75089 -3.73099 -3.78075 -3.65292 -3.57042 -3.35963 -2.90999 -3.12144 -3.095 -2.75021 -0.00411478 -0.00415466 -0.00400157 -0.00379634 -0.00381327 -0.00358503 -0.00356805 -0.00344112 -0.00296182 -0.0030426 -0.00301754 -0.00278576 -4.25562 -4.43758 -4.0693 -3.57612 -3.82767 -3.79708 -3.91431 -3.67028 -3.10645 -3.34442 -3.37593 -2.99851 -2.51989 -2.41863 -2.13982 -1.82305 -1.85685 -1.6503 -1.33404 -1.09208 -0.920044 -0.58134 -0.27203 -0.120183 -0.00272211 -0.00276405 -0.00248748 -0.00204109 -0.00209605 -0.00201529 -0.00168557 -0.00122608 -0.000323623 0.000257635 5.64506e-05 -8.26094e-05 -2.7081 -2.59457 -2.37828 -2.04923 -1.9435 -1.69904 -1.49957 -1.23103 -0.785086 -0.626836 -0.473743 -0.171604 0.120183 0.27203 0.58134 0.920044 1.09208 1.33404 1.6503 1.85685 1.82305 2.13982 2.41863 2.51989 8.26094e-05 -5.64506e-05 -0.000257635 0.000323623 0.00122608 0.00168557 0.00201529 0.00209605 0.00204109 0.00248748 0.00276405 0.00272211 0.171604 0.473743 0.626836 0.785086 1.23103 1.49957 1.69904 1.9435 2.04923 2.37828 2.59457 2.7081 2.75021 3.095 3.12144 2.90999 3.35963 3.57042 3.65292 3.78075 3.73099 3.75089 3.74489 3.94649 0.00278576 0.00301754 0.0030426 0.00296182 0.00344112 0.00356805 0.00358503 0.00381327 0.00379634 0.00400157 0.00415466 0.00411478 2.99851 3.37593 3.34442 3.10645 3.67028 3.91431 3.79708 3.82767 3.57612 4.0693 4.43758 4.25562 3.94649 3.74489 3.75089 3.73099 3.78075 3.65292 3.57042 3.35963 2.90999 3.12144 3.095 2.75021 0.00411478 0.00415466 0.00400157 0.00379634 0.00381327 0.00358503 0.00356805 0.00344112 0.00296182 0.0030426 0.00301754 0.00278576 4.25562 4.43758 4.0693 3.57612 3.82767 3.79708 3.91431 3.67028 3.10645 3.34442 3.37593 2.99851 2.51989 2.41863 2.13982 1.82305 1.85685 1.6503 1.33404 1.09208 0.920044 0.58134 0.27203 0.120183 0.00272211 0.00276405 0.00248748 0.00204109 0.00209605 0.00201529 0.00168557 0.00122608 0.000323623 -0.000257635 -5.64506e-05 8.26094e-05 2.7081 2.59457 2.37828 2.04923 1.9435 1.69904 1.49957 1.23103 0.785086 0.626836 0.473743 0.171604 -0.120183 -0.27203 -0.58134 -0.920044 -1.09208 -1.33404 -1.6503 -1.85685 -1.82305 -2.13982 -2.41863 -2.51989 -8.26094e-05 5.64506e-05 0.000257635 -0.000323623 -0.00122608 -0.00168557 -0.00201529 -0.00209605 -0.00204109 -0.00248748 -0.00276405 -0.00272211 -0.171604 -0.473743 -0.626836 -0.785086 -1.23103 -1.49957 -1.69904 -1.9435 -2.04923 -2.37828 -2.59457 -2.7081 -2.75021 -3.095 -3.12144 -2.90999 -3.35963 -3.57042 -3.65292 -3.78075 -3.73099 -3.75089 -3.74489 -3.94649 -0.00278576 -0.00301754 -0.0030426 -0.00296182 -0.00344112 -0.00356805 -0.00358503 -0.00381327 -0.00379634 -0.00400157 -0.00415466 -0.00411478 -2.99851 -3.37593 -3.34442 -3.10645 -3.67028 -3.91431 -3.79708 -3.82767 -3.57612 -4.0693 -4.43758 -4.25562 
</DataArray>
<DataArray Name="Stress_23" format="ascii" type="Float64">
-0.120183 -0.27203 -0.58134 -0.920044 -1.09208 -1.33404 -1.6503 -1.85685 -1.82305 -2.13982 -2.41863 -2.51989 -8.26094e-05 5.64506e-05 0.000257635 -0.000323623 -0.00122608 -0.00168557 -0.00201529 -0.00209605 -0.00204109 -0.00248748 -0.00276405 -0.00272211 -0.171604 -0.473743 -0.626836 -0.785086 -1.23103 -1.49957 -1.69904 -1.9435 -2.04923 -2.37828 -2.59457 -2.7081 -2.75021 -3.095 -3.12144 -2.90999 -3.35963 -3.57042 -3.65292 -3.78075 -3.73099 -3.75089 -3.74489 -3.94649 -0.00278576 -0.00301754 -0.0030426 -0.00296182 -0.00344112 -0.00356805 -0.00358503 -0.00381327 -0.00379634 -0.00400157 -0.00415466 -0.00411478 -2.99851 -3.37593 -3.34442 -3.10645 -3.67028 -3.91431 -3.79708 -3.82767 -3.57612 -4.0693 -4.43758 -4.25562 -3.94649 -3.74489 -3.75089 -3.73099 -3.78075 -3.65292 -3.57042 -3.35963 -2.90999 -3.12144 -3.095 -2.75021 -0.00411478 -0.00415466 -0.00400157 -0.00379634 -0.00381327 -0.00358503 -0.00356805 -0.00344112 -0.00296182 -0.0030426 -0.00301754 -0.00278576 -4.25562 -4.43758 -4.0693 -3.57612 -3.82767 -3.79708 -3.91431 -3.67028 -3.10645 -3.34442 -3.37593 -2.99851 -2.51989 -2.41863 -2.13982 -1.82305 -1.85685 -1.6503 -1.33404 -1.09208 -0.920044 -0.58134 -0.27203 -0.120183 -0.00272211 -0.00276405 -0.00248748 -0.00204109 -0.00209605 -0.00201529 -0.00168557 -0.00122608 -0.000323623 0.000257635 5.64506e-05 -8.26094e-05 -2.7081 -2.59457 -2.37828 -2.04923 -1.9435 -1.69904 -1.49957 -1.23103 -0.785086 -0.626836 -0.473743 -0.171604 0.120183 0.27203 0.58134 0.920044 1.09208 1.33404 1.6503 1.85685 1.82305 2.13982 2.41863 2.51989 8.26094e-05 -5.64506e-05 -0.000257635 0.000323623 0.00122608 0.00168557 0.00201529 0.00209605 0.00204109 0.00248748 0.00276405 0.00272211 0.171604 0.473743 0.626836 0.785086 1.23103 1.49957 1.69904 1.9435 2.04923 2.37828 2.59457 2.7081 2.75021 3.095 3.12144 2.90999 3.35963 3.57042 3.65292 3.78075 3.73099 3.75089 3.74489 3.94649 0.00278576 0.00301754 0.0030426 0.00296182 0.00344112 0.00356805 0.00358503 0.00381327 0.00379634 0.00400157 0.00415466 0.00411478 2.99851 3.37593 3.34442 3.10645 3.67028 3.91431 3.79708 3.82767 3.57612 4.0693 4.43758 4.25562 3.94649 3.74489 3.75089 3.73099 3.78075 3.65292 3.57042 3.35963 2.90999 3.12144 3.095 2.75021 0.00411478 0.00415466 0.00400157 0.00379634 0.00381327 0.00358503 0.00356805 0.00344112 0.00296182 0.0030426 0.00301754 0.00278576 4.25562 4.43758 4.0693 3.57612 3.82767 3.79708 3.91431 3.67028 3.10645 3.34442 3.37593 2.99851 2.51989 2.41863 2.13982 1.82305 1.85685 1.6503 1.33404 1.09208 0.920044 0.58134 0.27203 0.120183 0.00272211 0.00276405 0.00248748 0.00204109 0.00209605 0.00201529 0.00168557 0.00122608 0.000323623 -0.000257635 -5.64506e-05 8.26094e-05 2.7081 2.59457 2.37828 2.04923 1.9435 1.69904 1.49957 1.23103 0.785086 0.626836 0.473743 0.171604 
</DataArray>
<DataArray Name="Stress_33" format="ascii" type="Float64">
0 0 0 0 0 0 0 0 0 0 0 0 0 0 0 0 0 0 0 0 0 0 0 0 0 0 0 0 0 0 0 0 0 0 0 0 0 0 0 0 0 0 0 0 0 0 0 0 0 0 0 0 0 0 0 0 0 0 0 0 0 0 0 0 0 0 0 0 0 0 0 0 0 0 0 0 0 0 0 0 0 0 0 0 0 0 0 0 0 0 0 0 0 0 0 0 0 0 0 0 0 0 0 0 0 0 0 0 0 0 0 0 0 0 0 0 0 0 0 0 0 0 0 0 0 0 0 0 0 0 0 0 0 0 0 0 0 0 0 0 0 0 0 0 0 0 0 0 0 0 0 0 0 0 0 0 0 0 0 0 0 0 0 0 0 0 0 0 0 0 0 0 0 0 0 0 0 0 0 0 0 0 0 0 0 0 0 0 0 0 0 0 0 0 0 0 0 0 0 0 0 0 0 0 0 0 0 0 0 0 0 0 0 0 0 0 0 0 0 0 0 0 0 0 0 0 0 0 0 0 0 0 0 0 0 0 0 0 0 0 0 0 0 0 0 0 0 0 0 0 0 0 0 0 0 0 0 0 0 0 0 0 0 0 0 0 0 0 0 0 0 0 0 0 0 0 0 0 0 0 0 0 0 0 0 0 0 0 
</DataArray>
</CellData>
<Points>
<DataArray NumberOfComponents="3" format="ascii" type="Float64">
0 0.09 0 -0.06364 0.06364 0 -0.005886 0.089807 0 -0.011747 0.08923 0 -0.017558 0.088271 0 -0.023294 0.086933 0 -0.02893 0.085224 0 -0.034442 0.083149 0 -0.039806 0.080719 0 -0.045 0.077942 0 -0.050001 0.074832 0 -0.054789 0.071402 0 -0.059341 0.067666 0 -0.065997 0.065997 0 0 0.093333 0 -0.006104 0.093133 0 -0.012182 0.092535 0 -0.018208 0.09154 0 -0.024156 0.090153 0 -0.030001 0.08838 0 -0.035717 0.086229 0 -0.04128 0.083708 0 -0.046667 0.080829 0 -0.051853 0.077604 0 -0.056818 0.074046 0 -0.061539 0.070172 0 -0.068354 0.068354 0 0 0.096667 0 -0.006322 0.09646 0 -0.012618 0.09584 0 -0.018859 0.094809 0 -0.025019 0.093373 0 -0.031072 0.091537 0 -0.036993 0.089308 0 -0.042755 0.086698 0 -0.048333 0.083716 0 -0.053705 0.080375 0 -0.058847 0.076691 0 -0.063737 0.072678 0 -0.070711 0.070711 0 0 0.1 0 -0.00654 0.099786 0 -0.013053 0.099144 0 -0.019509 0.098079 0 -0.025882 0.096593 0 -0.032144 0.094693 0 -0.038268 0.092388 0 -0.044229 0.089687 0 -0.05 0.086603 0 -0.055557 0.083147 0 -0.060876 0.079335 0 -0.065935 0.075184 0 -0.09 0 0 -0.067666 0.059341 0 -0.071402 0.054789 0 -0.074832 0.050001 0 -0.077942 0.045 0 -0.080719 0.039806 0 -0.083149 0.034442 0 -0.085224 0.02893 0 -0.086933 0.023294 0 -0.088271 0.017558 0 -0.08923 0.011747 0 -0.089807 0.005886 0 -0.093333 0 0 -0.070172 0.061539 0 -0.074046 0.056818 0 -0.077604 0.051853 0 -0.080829 0.046667 0 -0.083708 0.04128 0 -0.086229 0.035717 0 -0.08838 0.030001 0 -0.090153 0.024156 0 -0.09154 0.018208 0 -0.092535 0.012182 0 -0.093133 0.006104 0 -0.096667 0 0 -0.072678 0.063737 0 -0.076691 0.058847 0 -0.080375 0.053705 0 -0.083716 0.048333 0 -0.086698 0.042755 0 -0.089308 0.036993 0 -0.091537 0.031072 0 -0.093373 0.025019 0 -0.094809 0.018859 0 -0.09584 0.012618 0 -0.09646 0.006322 0 -0.1 0 0 -0.075184 0.065935 0 -0.079335 0.060876 0 -0.083147 0.055557 0 -0.086603 0.05 0 -0.089687 0.044229 0 -0.092388 0.038268 0 -0.094693 0.032144 0 -0.096593 0.025882 0 -0.098079 0.019509 0 -0.099144 0.013053 0 -0.099786 0.00654 0 -0.06364 -0.06364 0 -0.089807 -0.005886 0 -0.08923 -0.011747 0 -0.088271 -0.017558 0 -0.086933 -0.023294 0 -0.085224 -0.02893 0 -0.083149 -0.034442 0 -0.080719 -0.039806 0 -0.077942 -0.045 0 -0.074832 -0.050001 0 -0.071402 -0.054789 0 -0.067666 -0.059341 0 -0.065997 -0.065997 0 -0.093133 -0.006104 0 -0.092535 -0.012182 0 -0.09154 -0.018208 0 -0.090153 -0.024156 0 -0.08838 -0.030001 0 -0.086229 -0.035717 0 -0.083708 -0.04128 0 -0.080829 -0.046667 0 -0.077604 -0.051853 0 -0.074046 -0.056818 0 -0.070172 -0.061539 0 -0.068354 -0.068354 0 -0.09646 -0.006322 0 -0.09584 -0.012618 0 -0.094809 -0.018859 0 -0.093373 -0.025019 0 -0.091537 -0.031072 0 -0.089308 -0.036993 0 -0.086698 -0.042755 0 -0.083716 -0.048333 0 -0.080375 -0.053705 0 -0.076691 -0.058847 0 -0.072678 -0.063737 0 -0.070711 -0.070711 0 -0.099786 -0.00654 0 -0.099144 -0.013053 0 -0.098079 -0.019509 0 -0.096593 -0.025882 0 -0.094693 -0.032144 0 -0.092388 -0.038268 0 -0.089687 -0.044229 0 -0.086603 -0.05 0 -0.083147 -0.055557 0 -0.079335 -0.060876 0 -0.075184 -0.065935 0 0 -0.09 0 -0.059341 -0.067666 0 -0.054789 -0.071402 0 -0.050001 -0.074832 0 -0.045 -0.077942 0 -0.039806 -0.080719 0 -0.034442 -0.083149 0 -0.02893 -0.085224 0 -0.023294 -0.086933 0 -0.017558 -0.088271 0 -0.011747 -0.08923 0 -0.005886 -0.089807 0 0 -0.093333 0 -0.061539 -0.070172 0 -0.056818 -0.074046 0 -0.051853 -0.077604 0 -0.046667 -0.080829 0 -0.04128 -0.083708 0 -0.035717 -0.086229 0 -0.030001 -0.08838 0 -0.024156 -0.090153 0 -0.018208 -0.09154 0 -0.012182 -0.092535 0 -0.006104 -0.093133 0 0 -0.096667 0 -0.063737 -0.072678 0 -0.058847 -0.076691 0 -0.053705 -0.080375 0 -0.048333 -0.083716 0 -0.042755 -0.086698 0 -0.036993 -0.089308 0 -0.031072 -0.091537 0 -0.025019 -0.093373 0 -0.018859 -0.094809 0 -0.012618 -0.09584 0 -0.006322 -0.09646 0 0 -0.1 0 -0.065935 -0.075184 0 -0.060876 -0.079335 0 -0.055557 -0.083147 0 -0.05 -0.086603 0 -0.044229 -0.089687 0 -0.038268 -0.092388 0 -0.032144 -0.094693 0 -0.025882 -0.096593 0 -0.019509 -0.098079 0 -0.013053 -0.099144 0 -0.00654 -0.099786 0 0.06364 -0.06364 0 0.005886 -0.089807 0 0.011747 -0.08923 0 0.017558 -0.088271 0 0.023294 -0.086933 0 0.02893 -0.085224 0 0.034442 -0.083149 0 0.039806 -0.080719 0 0.045 -0.077942 0 0.050001 -0.074832 0 0.054789 -0.071402 0 0.059341 -0.067666 0 0.065997 -0.065997 0 0.006104 -0.093133 0 0.012182 -0.092535 0 0.018208 -0.09154 0 0.024156 -0.090153 0 0.030001 -0.08838 0 0.035717 -0.086229 0 0.04128 -0.083708 0 0.046667 -0.080829 0 0.051853 -0.077604 0 0.056818 -0.074046 0 0.061539 -0.070172 0 0.068354 -0.068354 0 0.006322 -0.09646 0 0.012618 -0.09584 0 0.018859 -0.094809 0 0.025019 -0.093373 0 0.031072 -0.091537 0 0.036993 -0.089308 0 0.042755 -0.086698 0 0.048333 -0.083716 0 0.053705 -0.080375 0 0.058847 -0.076691 0 0.063737 -0.072678 0 0.070711 -0.070711 0 0.00654 -0.099786 0 0.013053 -0.099144 0 0.019509 -0.098079 0 0.025882 -0.096593 0 0.032144 -0.094693 0 0.038268 -0.092388 0 0.044229 -0.089687 0 0.05 -0.086603 0 0.055557 -0.083147 0 0.060876 -0.079335 0 0.065935 -0.075184 0 0.09 0 0 0.067666 -0.059341 0 0.071402 -0.054789 0 0.074832 -0.050001 0 0.077942 -0.045 0 0.080719 -0.039806 0 0.083149 -0.034442 0 0.085224 -0.02893 0 0.086933 -0.023294 0 0.088271 -0.017558 0 0.08923 -0.011747 0 0.089807 -0.005886 0 0.093333 0 0 0.070172 -0.061539 0 0.074046 -0.056818 0 0.077604 -0.051853 0 0.080829 -0.046667 0 0.083708 -0.04128 0 0.086229 -0.035717 0 0.08838 -0.030001 0 0.090153 -0.024156 0 0.09154 -0.018208 0 0.092535 -0.012182 0 0.093133 -0.006104 0 0.096667 0 0 0.072678 -0.063737 0 0.076691 -0.058847 0 0.080375 -0.053705 0 0.083716 -0.048333 0 0.086698 -0.042755 0 0.089308 -0.036993 0 0.091537 -0.031072 0 0.093373 -0.025019 0 0.094809 -0.018859 0 0.09584 -0.012618 0 0.09646 -0.006322 0 0.1 0 0 0.075184 -0.065935 0 0.079335 -0.060876 0 0.083147 -0.055557 0 0.086603 -0.05 0 0.089687 -0.044229 0 0.092388 -0.038268 0 0.094693 -0.032144 0 0.096593 -0.025882 0 0.098079 -0.019509 0 0.099144 -0.013053 0 0.099786 -0.00654 0 0.06364 0.06364 0 0.089807 0.005886 0 0.08923 0.011747 0 0.088271 0.017558 0 0.086933 0.023294 0 0.085224 0.02893 0 0.083149 0.034442 0 0.080719 0.039806 0 0.077942 0.045 0 0.074832 0.050001 0 0.071402 0.054789 0 0.067666 0.059341 0 0.065997 0.065997 0 0.093133 0.006104 0 0.092535 0.012182 0 0.09154 0.018208 0 0.090153 0.024156 0 0.08838 0.030001 0 0.086229 0.035717 0 0.083708 0.04128 0 0.080829 0.046667 0 0.077604 0.051853 0 0.074046 0.056818 0 0.070172 0.061539 0 0.068354 0.068354 0 0.09646 0.006322 0 0.09584 0.012618 0 0.094809 0.018859 0 0.093373 0.025019 0 0.091537 0.031072 0 0.089308 0.036993 0 0.086698 0.042755 0 0.083716 0.048333 0 0.080375 0.053705 0 0.076691 0.058847 0 0.072678 0.063737 0 0.070711 0.070711 0 0.099786 0.00654 0 0.099144 0.013053 0 0.098079 0.019509 0 0.096593 0.025882 0 0.094693 0.032144 0 0.092388 0.038268 0 0.089687 0.044229 0 0.086603 0.05 0 0.083147 0.055557 0 0.079335 0.060876 0 0.075184 0.065935 0 0.059341 0.067666 0 0.054789 0.071402 0 0.050001 0.074832 0 0.045 0.077942 0 0.039806 0.080719 0 0.034442 0.083149 0 0.02893 0.085224 0 0.023294 0.086933 0 0.017558 0.088271 0 0.011747 0.08923 0 0.005886 0.089807 0 0.061539 0.070172 0 0.056818 0.074046 0 0.051853 0.077604 0 0.046667 0.080829 0 0.04128 0.083708 0 0.035717 0.086229 0 0.030001 0.08838 0 0.024156 0.090153 0 0.018208 0.09154 0 0.012182 0.092535 0 0.006104 0.093133 0 0.063737 0.072678 0 0.058847 0.076691 0 0.053705 0.080375 0 0.048333 0.083716 0 0.042755 0.086698 0 0.036993 0.089308 0 0.031072 0.091537 0 0.025019 0.093373 0 0.018859 0.094809 0 0.012618 0.09584 0 0.006322 0.09646 0 0.065935 0.075184 0 0.060876 0.079335 0 0.055557 0.083147 0 0.05 0.086603 0 0.044229 0.089687 0 0.038268 0.092388 0 0.032144 0.094693 0 0.025882 0.096593 0 0.019509 0.098079 0 0.013053 0.099144 0 0.00654 0.099786 0 
</DataArray>
</Points>
<Cells>
<DataArray Name="connectivity" format="ascii" type="Int64">