<?xml version="1.0"?>
<VTKFile byte_order="LittleEndian" type="UnstructuredGrid" version="0.1">
<UnstructuredGrid>
<Piece NumberOfCells="288" NumberOfPoints="384">
<PointData>
<DataArray Name="Warping_X" format="ascii" type="Float64">
0 0 0 0 0 0 0 0 0 0 0 0 0 0 0 0 0 0 0 0 0 0 0 0 0 0 0 0 0 0 0 0 0 0 0 0 0 0 0 0 0 0 0 0 0 0 0 0 0 0 0 0 0 0 0 0 0 0 0 0 0 0 0 0 0 0 0 0 0 0 0 0 0 0 0 0 0 0 0 0 0 0 0 0 0 0 0 0 0 0 0 0 0 0 0 0 0 0 0 0 0 0 0 0 0 0 0 0 0 0 0 0 0 0 0 0 0 0 0 0 0 0 0 0 0 0 0 0 0 0 0 0 0 0 0 0 0 0 0 0 0 0 0 0 0 0 0 0 0 0 0 0 0 0 0 0 0 0 0 0 0 0 0 0 0 0 0 0 0 0 0 0 0 0 0 0 0 0 0 0 0 0 0 0 0 0 0 0 0 0 0 0 0 0 0 0 0 0 0 0 0 0 0 0 0 0 0 0 0 0 0 0 0 0 0 0 0 0 0 0 0 0 0 0 0 0 0 0 0 0 0 0 0 0 0 0 0 0 0 0 0 0 0 0 0 0 0 0 0 0 0 0 0 0 0 0 0 0 0 0 0 0 0 0 0 0 0 0 0 0 0 0 0 0 0 0 0 0 0 0 0 0 0 0 0 0 0 0 0 0 0 0 0 0 0 0 0 0 0 0 0 0 0 0 0 0 0 0 0 0 0 0 0 0 0 0 0 0 0 0 0 0 0 0 0 0 0 0 0 0 0 0 0 0 0 0 0 0 0 0 0 0 0 0 0 0 0 0 0 0 0 0 0 0 0 0 0 0 0 0 0 0 0 0 0 0 0 0 0 0 0 0 0 0 0 0 0 0 0 0 0 0 0 0 
</DataArray>
<DataArray Name="Warping_Y" format="ascii" type="Float64">
0 0 0 0 0 0 0 0 0 0 0 0 0 0 0 0 0 0 0 0 0 0 0 0 0 0 0 0 0 0 0 0 0 0 0 0 0 0 0 0 0 0 0 0 0 0 0 0 0 0 0 0 0 0 0 0 0 0 0 0 0 0 0 0 0 0 0 0 0 0 0 0 0 0 0 0 0 0 0 0 0 0 0 0 0 0 0 0 0 0 0 0 0 0 0 0 0 0 0 0 0 0 0 0 0 0 0 0 0 0 0 0 0 0 0 0 0 0 0 0 0 0 0 0 0 0 0 0 0 0 0 0 0 0 0 0 0 0 0 0 0 0 0 0 0 0 0 0 0 0 0 0 0 0 0 0 0 0 0 0 0 0 0 0 0 0 0 0 0 0 0 0 0 0 0 0 0 0 0 0 0 0 0 0 0 0 0 0 0 0 0 0 0 0 0 0 0 0 0 0 0 0 0 0 0 0 0 0 0 0 0 0 0 0 0 0 0 0 0 0 0 0 0 0 0 0 0 0 0 0 0 0 0 0 0 0 0 0 0 0 0 0 0 0 0 0 0 0 0 0 0 0 0 0 0 0 0 0 0 0 0 0 0 0 0 0 0 0 0 0 0 0 0 0 0 0 0 0 0 0 0 0 0 0 0 0 0 0 0 0 0 0 0 0 0 0 0 0 0 0 0 0 0 0 0 0 0 0 0 0 0 0 0 0 0 0 0 0 0 0 0 0 0 0 0 0 0 0 0 0 0 0 0 0 0 0 0 0 0 0 0 0 0 0 0 0 0 0 0 0 0 0 0 0 0 0 0 0 0 0 0 0 0 0 0 0 0 0 0 0 0 0 0 0 0 0 0 0 0 0 0 0 0 0 
</DataArray>
<DataArray Name="Warping_Z" format="ascii" type="Float64">
0 0 0 0 0 0 0 0 0 0 0 0 0 0 0 0 0 0 0 0 0 0 0 0 0 0 0 0 0 0 0 0 0 0 0 0 0 0 0 0 0 0 0 0 0 0 0 0 0 0 0 0 0 0 0 0 0 0 0 0 0 0 0 0 0 0 0 0 0 0 0 0 0 0 0 0 0 0 0 0 0 0 0 0 0 0 0 0 0 0 0 0 0 0 0 0 0 0 0 0 0 0 0 0 0 0 0 0 0 0 0 0 0 0 0 0 0 0 0 0 0 0 0 0 0 0 0 0 0 0 0 0 0 0 0 0 0 0 0 0 0 0 0 0 0 0 0 0 0 0 0 0 0 0 0 0 0 0 0 0 0 0 0 0 0 0 0 0 0 0 0 0 0 0 0 0 0 0 0 0 0 0 0 0 0 0 0 0 0 0 0 0 0 0 0 0 0 0 0 0 0 0 0 0 0 0 0 0 0 0 0 0 0 0 0 0 0 0 0 0 0 0 0 0 0 0 0 0 0 0 0 0 0 0 0 0 0 0 0 0 0 0 0 0 0 0 0 0 0 0 0 0 0 0 0 0 0 0 0 0 0 0 0 0 0 0 0 0 0 0 0 0 0 0 0 0 0 0 0 0 0 0 0 0 0 0 0 0 0 0 0 0 0 0 0 0 0 0 0 0 0 0 0 0 0 0 0 0 0 0 0 0 0 0 0 0 0 0 0 0 0 0 0 0 0 0 0 0 0 0 0 0 0 0 0 0 0 0 0 0 0 0 0 0 0 0 0 0 0 0 0 0 0 0 0 0 0 0 0 0 0 0 0 0 0 0 0 0 0 0 0 0 0 0 0 0 0 0 0 0 0 0 0 0 
</DataArray>
</PointData>
<CellData>
<DataArray Name="MaterialId" format="ascii" type="Float64">
1 1 1 1 1 1 1 1 1 1 1 1 2 2 2 2 2 2 2 2 2 2 2 2 1 1 1 1 1 1 1 1 1 1 1 1 1 1 1 1 1 1 1 1 1 1 1 1 2 2 2 2 2 2 2 2 2 2 2 2 1 1 1 1 1 1 1 1 1 1 1 1 1 1 1 1 1 1 1 1 1 1 1 1 2 2 2 2 2 2 2 2 2 2 2 2 1 1 1 1 1 1 1 1 1 1 1 1 1 1 1 1 1 1 1 1 1 1 1 1 2 2 2 2 2 2 2 2 2 2 2 2 1 1 1 1 1 1 1 1 1 1 1 1 1 1 1 1 1 1 1 1 1 1 1 1 2 2 2 2 2 2 2 2 2 2 2 2 1 1 1 1 1 1 1 1 1 1 1 1 1 1 1 1 1 1 1 1 1 1 1 1 2 2 2 2 2 2 2 2 2 2 2 2 1 1 1 1 1 1 1 1 1 1 1 1 1 1 1 1 1 1 1 1 1 1 1 1 2 2 2 2 2 2 2 2 2 2 2 2 1 1 1 1 1 1 1 1 1 1 1 1 1 1 1 1 1 1 1 1 1 1 1 1 2 2 2 2 2 2 2 2 2 2 2 2 1 1 1 1 1 1 1 1 1 1 1 1 
</DataArray>
<DataArray Name="FiberAngle" format="ascii" type="Float64">
0 0 0 0 0 0 0 0 0 0 0 0 0 0 0 0 0 0 0 0 0 0 0 0 0 0 0 0 0 0 0 0 0 0 0 0 0 0 0 0 0 0 0 0 0 0 0 0 0 0 0 0 0 0 0 0 0 0 0 0 0 0 0 0 0 0 0 0 0 0 0 0 0 0 0 0 0 0 0 0 0 0 0 0 0 0 0 0 0 0 0 0 0 0 0 0 0 0 0 0 0 0 0 0 0 0 0 0 0 0 0 0 0 0 0 0 0 0 0 0 0 0 0 0 0 0 0 0 0 0 0 0 0 0 0 0 0 0 0 0 0 0 0 0 0 0 0 0 0 0 0 0 0 0 0 0 0 0 0 0 0 0 0 0 0 0 0 0 0 0 0 0 0 0 0 0 0 0 0 0 0 0 0 0 0 0 0 0 0 0 0 0 0 0 0 0 0 0 0 0 0 0 0 0 0 0 0 0 0 0 0 0 0 0 0 0 0 0 0 0 0 0 0 0 0 0 0 0 0 0 0 0 0 0 0 0 0 0 0 0 0 0 0 0 0 0 0 0 0 0 0 0 0 0 0 0 0 0 0 0 0 0 0 0 0 0 0 0 0 0 0 0 0 0 0 0 0 0 0 0 0 0 0 0 0 0 0 0 
</DataArray>
<DataArray Name="Strain_11" format="ascii" type="Float64">
0 0 0 0 0 0 0 0 0 0 0 0 0 0 0 0 0 0 0 0 0 0 0 0 0 0 0 0 0 0 0 0 0 0 0 0 0 0 0 0 0 0 0 0 0 0 0 0 0 0 0 0 0 0 0 0 0 0 0 0 0 0 0 0 0 0 0 0 0 0 0 0 0 0 0 0 0 0 0 0 0 0 0 0 0 0 0 0 0 0 0 0 0 0 0 0 0 0 0 0 0 0 0 0 0 0 0 0 0 0 0 0 0 0 0 0 0 0 0 0 0 0 0 0 0 0 0 0 0 0 0 0 0 0 0 0 0 0 0 0 0 0 0 0 0 0 0 0 0 0 0 0 0 0 0 0 0 0 0 0 0 0 0 0 0 0 0 0 0 0 0 0 0 0 0 0 0 0 0 0 0 0 0 0 0 0 0 0 0 0 0 0 0 0 0 0 0 0 0 0 0 0 0 0 0 0 0 0 0 0 0 0 0 0 0 0 0 0 0 0 0 0 0 0 0 0 0 0 0 0 0 0 0 0 0 0 0 0 0 0 0 0 0 0 0 0 0 0 0 0 0 0 0 0 0 0 0 0 0 0 0 0 0 0 0 0 0 0 0 0 0 0 0 0 0 0 0 0 0 0 0 0 0 0 0 0 0 0 
</DataArray>
<DataArray Name="Strain_22" format="ascii" type="Float64">
0 0 0 0 0 0 0 0 0 0 0 0 0 0 0 0 0 0 0 0 0 0 0 0 0 0 0 0 0 0 0 0 0 0 0 0 0 0 0 0 0 0 0 0 0 0 0 0 0 0 0 0 0 0 0 0 0 0 0 0 0 0 0 0 0 0 0 0 0 0 0 0 0 0 0 0 0 0 0 0 0 0 0 0 0 0 0 0 0 0 0 0 0 0 0 0 0 0 0 0 0 0 0 0 0 0 0 0 0 0 0 0 0 0 0 0 0 0 0 0 0 0 0 0 0 0 0 0 0 0 0 0 0 0 0 0 0 0 0 0 0 0 0 0 0 0 0 0 0 0 0 0 0 0 0 0 0 0 0 0 0 0 0 0 0 0 0 0 0 0 0 0 0 0 0 0 0 0 0 0 0 0 0 0 0 0 0 0 0 0 0 0 0 0 0 0 0 0 0 0 0 0 0 0 0 0 0 0 0 0 0 0 0 0 0 0 0 0 0 0 0 0 0 0 0 0 0 0 0 0 0 0 0 0 0 0 0 0 0 0 0 0 0 0 0 0 0 0 0 0 0 0 0 0 0 0 0 0 0 0 0 0 0 0 0 0 0 0 0 0 0 0 0 0 0 0 0 0 0 0 0 0 0 0 0 0 0 0 
</DataArray>
<DataArray Name="Strain_12" format="ascii" type="Float64">
0 0 0 0 0 0 0 0 0 0 0 0 0 0 0 0 0 0 0 0 0 0 0 0 0 0 0 0 0 0 0 0 0 0 0 0 0 0 0 0 0 0 0 0 0 0 0 0 0 0 0 0 0 0 0 0 0 0 0 0 0 0 0 0 0 0 0 0 0 0 0 0 0 0 0 0 0 0 0 0 0 0 0 0 0 0 0 0 0 0 0 0 0 0 0 0 0 0 0 0 0 0 0 0 0 0 0 0 0 0 0 0 0 0 0 0 0 0 0 0 0 0 0 0 0 0 0 0 0 0 0 0 0 0 0 0 0 0 0 0 0 0 0 0 0 0 0 0 0 0 0 0 0 0 0 0 0 0 0 0 0 0 0 0 0 0 0 0 0 0 0 0 0 0 0 0 0 0 0 0 0 0 0 0 0 0 0 0 0 0 0 0 0 0 0 0 0 0 0 0 0 0 0 0 0 0 0 0 0 0 0 0 0 0 0 0 0 0 0 0 0 0 0 0 0 0 0 0 0 0 0 0 0 0 0 0 0 0 0 0 0 0 0 0 0 0 0 0 0 0 0 0 0 0 0 0 0 0 0 0 0 0 0 0 0 0 0 0 0 0 0 0 0 0 0 0 0 0 0 0 0 0 0 0 0 0 0 0 
</DataArray>
<DataArray Name="Strain_13" format="ascii" type="Float64">
0.3892 1.16089 1.91285 2.63208 3.30644 3.92392 4.47444 4.94806 5.33654 5.6354 5.83722 5.9383 -0.455387 -1.35567 -2.23824 -3.0776 -3.8652 -4.58901 -5.23132 -5.78552 -6.24395 -6.58952 -6.82407 -6.9436 0.396023 1.18144 1.94631 2.67774 3.36407 3.99251 4.55305 5.03492 5.43003 5.73414 5.93963 6.04248 5.93812 5.83683 5.63497 5.33667 4.94852 4.47463 3.92388 3.30621 2.63238 1.91268 1.16052 0.389193 -6.94419 -6.82396 -6.58943 -6.24204 -5.78413 -5.23008 -4.58739 -3.86543 -3.08052 -2.24097 -1.35935 -0.455181 6.04216 5.93907 5.73397 5.43049 5.03499 4.55272 3.99284 3.36435 2.6776 1.94638 1.18165 0.396199 -0.389193 -1.16052 -1.91268 -2.63238 -3.30621 -3.92388 -4.47463 -4.94852 -5.33667 -5.63497 -5.83683 -5.93812 0.455181 1.35935 2.24097 3.08052 3.86543 4.58739 5.23008 5.78413 6.24204 6.58943 6.82396 6.94419 -0.396199 -1.18165 -1.94638 -2.6776 -3.36435 -3.99284 -4.55272 -5.03499 -5.43049 -5.73397 -5.93907 -6.04216 -5.9383 -5.83722 -5.6354 -5.33654 -4.94806 -4.47444 -3.92392 -3.30644 -2.63208 -1.91285 -1.16089 -0.3892 6.9436 6.82407 6.58952 6.24395 5.78552 5.23132 4.58901 3.8652 3.0776 2.23824 1.35567 0.455387 -6.04248 -5.93963 -5.73414 -5.43003 -5.03492 -4.55305 -3.99251 -3.36407 -2.67774 -1.94631 -1.18144 -0.396023 0.3892 1.16089 1.91285 2.63208 3.30644 3.92392 4.47444 4.94806 5.33654 5.6354 5.83722 5.9383 -0.455387 -1.35567 -2.23824 -3.0776 -3.8652 -4.58901 -5.23132 -5.78552 -6.24395 -6.58952 -6.82407 -6.9436 0.396023 1.18144 1.94631 2.67774 3.36407 3.99251 4.55305 5.03492 5.43003 5.73414 5.93963 6.04248 5.93812 5.83683 5.63497 5.33667 4.94852 4.47463 3.92388 3.30621 2.63238 1.91268 1.16052 0.389193 -6.94419 -6.82396 -6.58943 -6.24204 -5.78413 -5.23008 -4.58739 -3.86543 -3.08052 -2.24097 -1.35935 -0.455181 6.04216 5.93907 5.73397 5.43049 5.03499 4.55272 3.99284 3.36435 2.6776 1.94638 1.18165 0.396199 -0.389193 -1.16052 -1.91268 -2.63238 -3.30621 -3.92388 -4.47463 -4.94852 -5.33667 -5.63497 -5.83683 -5.93812 0.455181 1.35935 2.24097 3.08052 3.86543 4.58739 5.23008 5.78413 6.24204 6.58943 6.82396 6.94419 -0.396199 -1.18165 -1.94638 -2.6776 -3.36435 -3.99284 -4.55272 -5.03499 -5.43049 -5.73397 -5.93907 -6.04216 -5.9383 -5.83722 -5.6354 -5.33654 -4.94806 -4.47444 -3.92392 -3.30644 -2.63208 -1.91285 -1.16089 -0.3892 6.9436 6.82407 6.58952 6.24395 5.78552 5.23132 4.58901 3.8652 3.0776 2.23824 1.35567 0.455387 -6.04248 -5.93963 -5.73414 -5.43003 -5.03492 -4.55305 -3.99251 -3.36407 -2.67774 -1.94631 -1.18144 -0.396023 
</DataArray>
<DataArray Name="Strain_23" format="ascii" type="Float64">
-10.4941 -10.3926 -10.191 -9.89307 -9.50397 -9.02999 -8.47949 -7.86188 -7.18834 -6.46888 -5.7167 -4.94521 15.3972 15.28 15.0475 14.7 14.2437 13.6922 13.0479 12.3241 11.538 10.6973 9.81723 8.91481 -10.4949 -10.3915 -10.1865 -9.88354 -9.48729 -9.00501 -8.44507 -7.81661 -7.13095 -6.39892 -5.63377 -4.84872 -4.16654 -3.39416 -2.64269 -1.92487 -1.2494 -0.631365 -0.0809889 0.393106 0.781827 1.07962 1.28087 1.38333 8.00316 7.10058 6.22141 5.381 4.59252 3.87047 3.2271 2.6731 2.21782 1.87043 1.63493 1.51606 -4.05634 -3.27038 -2.50596 -1.77558 -1.08797 -0.459087 0.100127 0.582103 0.976754 1.28177 1.48826 1.59078 1.38333 1.28087 1.07962 0.781827 0.393106 -0.0809889 -0.631365 -1.2494 -1.92487 -2.64269 -3.39416 -4.16654 1.51606 1.63493 1.87043 2.21782 2.6731 3.2271 3.87047 4.59252 5.381 6.22141 7.10058 8.00316 1.59078 1.48826 1.28177 0.976754 0.582103 0.100127 -0.459087 -1.08797 -1.77558 -2.50596 -3.27038 -4.05634 -4.94521 -5.7167 -6.46888 -7.18834 -7.86188 -8.47949 -9.02999 -9.50397 -9.89307 -10.191 -10.3926 -10.4941 8.91481 9.81723 10.6973 11.538 12.3241 13.0479 13.6922 14.2437 14.7 15.0475 15.28 15.3972 -4.84872 -5.63377 -6.39892 -7.13095 -7.81661 -8.44507 -9.00501 -9.48729 -9.88354 -10.1865 -10.3915 -10.4949 -10.4941 -10.3926 -10.191 -9.89307 -9.50397 -9.02999 -8.47949 -7.86188 -7.18834 -6.46888 -5.7167 -4.94521 15.3972 15.28 15.0475 14.7 14.2437 13.6922 13.0479 12.3241 11.538 10.6973 9.81723 8.91481 -10.4949 -10.3915 -10.1865 -9.88354 -9.48729 -9.00501 -8.44507 -7.81661 -7.13095 -6.39892 -5.63377 -4.84872 -4.16654 -3.39416 -2.64269 -1.92487 -1.2494 -0.631365 -0.0809889 0.393106 0.781827 1.07962 1.28087 1.38333 8.00316 7.10058 6.22141 5.381 4.59252 3.87047 3.2271 2.6731 2.21782 1.87043 1.63493 1.51606 -4.05634 -3.27038 -2.50596 -1.77558 -1.08797 -0.459087 0.100127 0.582103 0.976754 1.28177 1.48826 1.59078 1.38333 1.28087 1.07962 0.781827 0.393106 -0.0809889 -0.631365 -1.2494 -1.92487 -2.64269 -3.39416 -4.16654 1.51606 1.63493 1.87043 2.21782 2.6731 3.2271 3.87047 4.59252 5.381 6.22141 7.10058 8.00316 1.59078 1.48826 1.28177 0.976754 0.582103 0.100127 -0.459087 -1.08797 -1.77558 -2.50596 -3.27038 -4.05634 -4.94521 -5.7167 -6.46888 -7.18834 -7.86188 -8.47949 -9.02999 -9.50397 -9.89307 -10.191 -10.3926 -10.4941 8.91481 9.81723 10.6973 11.538 12.3241 13.0479 13.6922 14.2437 14.7 15.0475 15.28 15.3972 -4.84872 -5.63377 -6.39892 -7.13095 -7.81661 -8.44507 -9.00501 -9.48729 -9.88354 -10.1865 -10.3915 -10.4949 
</DataArray>
<DataArray Name="Strain_33" format="ascii" type="Float64">
0 0 0 0 0 0 0 0 0 0 0 0 0 0 0 0 0 0 0 0 0 0 0 0 0 0 0 0 0 0 0 0 0 0 0 0 0 0 0 0 0 0 0 0 0 0 0 0 0 0 0 0 0 0 0 0 0 0 0 0 0 0 0 0 0 0 0 0 0 0 0 0 0 0 0 0 0 0 0 0 0 0 0 0 0 0 0 0 0 0 0 0 0 0 0 0 0 0 0 0 0 0 0 0 0 0 0 0 0 0 0 0 0 0 0 0 0 0 0 0 0 0 0 0 0 0 0 0 0 0 0 0 0 0 0 0 0 0 0 0 0 0 0 0 0 0 0 0 0 0 0 0 0 0 0 0 0 0 0 0 0 0 0 0 0 0 0 0 0 0 0 0 0 0 0 0 0 0 0 0 0 0 0 0 0 0 0 0 0 0 0 0 0 0 0 0 0 0 0 0 0 0 0 0 0 0 0 0 0 0 0 0 0 0 0 0 0 0 0 0 0 0 0 0 0 0 0 0 0 0 0 0 0 0 0 0 0 0 0 0 0 0 0 0 0 0 0 0 0 0 0 0 0 0 0 0 0 0 0 0 0 0 0 0 0 0 0 0 0 0 0 0 0 0 0 0 0 0 0 0 0 0 0 0 0 0 0 0 
</DataArray>
<DataArray Name="Stress_11" format="ascii" type="Float64">
0 0 0 0 0 0 0 0 0 0 0 0 0 0 0 0 0 0 0 0 0 0 0 0 0 0 0 0 0 0 0 0 0 0 0 0 0 0 0 0 0 0 0 0 0 0 0 0 0 0 0 0 0 0 0 0 0 0 0 0 0 0 0 0 0 0 0 0 0 0 0 0 0 0 0 0 0 0 0 0 0 0 0 0 0 0 0 0 0 0 0 0 0 0 0 0 0 0 0 0 0 0 0 0 0 0 0 0 0 0 0 0 0 0 0 0 0 0 0 0 0 0 0 0 0 0 0 0 0 0 0 0 0 0 0 0 0 0 0 0 0 0 0 0 0 0 0 0 0 0 0 0 0 0 0 0 0 0 0 0 0 0 0 0 0 0 0 0 0 0 0 0 0 0 0 0 0 0 0 0 0 0 0 0 0 0 0 0 0 0 0 0 0 0 0 0 0 0 0 0 0 0 0 0 0 0 0 0 0 0 0 0 0 0 0 0 0 0 0 0 0 0 0 0 0 0 0 0 0 0 0 0 0 0 0 0 0 0 0 0 0 0 0 0 0 0 0 0 0 0 0 0 0 0 0 0 0 0 0 0 0 0 0 0 0 0 0 0 0 0 0 0 0 0 0 0 0 0 0 0 0 0 0 0 0 0 0 0 
</DataArray>
<DataArray Name="Stress_22" format="ascii" type="Float64">
0 0 0 0 0 0 0 0 0 0 0 0 0 0 0 0 0 0 0 0 0 0 0 0 0 0 0 0 0 0 0 0 0 0 0 0 0 0 0 0 0 0 0 0 0 0 0 0 0 0 0 0 0 0 0 0 0 0 0 0 0 0 0 0 0 0 0 0 0 0 0 0 0 0 0 0 0 0 0 0 0 0 0 0 0 0 0 0 0 0 0 0 0 0 0 0 0 0 0 0 0 0 0 0 0 0 0 0 0 0 0 0 0 0 0 0 0 0 0 0 0 0 0 0 0 0 0 0 0 0 0 0 0 0 0 0 0 0 0 0 0 0 0 0 0 0 0 0 0 0 0 0 0 0 0 0 0 0 0 0 0 0 0 0 0 0 0 0 0 0 0 0 0 0 0 0 0 0 0 0 0 0 0 0 0 0 0 0 0 0 0 0 0 0 0 0 0 0 0 0 0 0 0 0 0 0 0 0 0 0 0 0 0 0 0 0 0 0 0 0 0 0 0 0 0 0 0 0 0 0 0 0 0 0 0 0 0 0 0 0 0 0 0 0 0 0 0 0 0 0 0 0 0 0 0 0 0 0 0 0 0 0 0 0 0 0 0 0 0 0 0 0 0 0 0 0 0 0 0 0 0 0 0 0 0 0 0 0 
</DataArray>
<DataArray Name="Stress_12" format="ascii" type="Float64">
0 0 0 0 0 0 0 0 0 0 0 0 0 0 0 0 0 0 0 0 0 0 0 0 0 0 0 0 0 0 0 0 0 0 0 0 0 0 0 0 0 0 0 0 0 0 0 0 0 0 0 0 0 0 0 0 0 0 0 0 0 0 0 0 0 0 0 0 0 0 0 0 0 0 0 0 0 0 0 0 0 0 0 0 0 0 0 0 0 0 0 0 0 0 0 0 0 0 0 0 0 0 0 0 0 0 0 0 0 0 0 0 0 0 0 0 0 0 0 0 0 0 0 0 0 0 0 0 0 0 0 0 0 0 0 0 0 0 0 0 0 0 0 0 0 0 0 0 0 0 0 0 0 0 0 0 0 0 0 0 0 0 0 0 0 0 0 0 0 0 0 0 0 0 0 0 0 0 0 0 0 0 0 0 0 0 0 0 0 0 0 0 0 0 0 0 0 0 0 0 0 0 0 0 0 0 0 0 0 0 0 0 0 0 0 0 0 0 0 0 0 0 0 0 0 0 0 0 0 0 0 0 0 0 0 0 0 0 0 0 0 0 0 0 0 0 0 0 0 0 0 0 0 0 0 0 0 0 0 0 0 0 0 0 0 0 0 0 0 0 0 0 0 0 0 0 0 0 0 0 0 0 0 0 0 0 0 0 
</DataArray>
<DataArray Name="Stress_13" format="ascii" type="Float64">
16.2168 48.3709 79.7029 109.671 137.769 163.498 186.437 206.171 222.358 234.81 243.219 247.431 -0.0189746 -0.0564865 -0.0932608 -0.128235 -0.161051 -0.19121 -0.217974 -0.241065 -0.260167 -0.274566 -0.284338 -0.289319 16.5011 49.227 81.0971 111.574 140.171 166.356 189.712 209.79 226.253 238.924 247.487 251.772 247.424 243.203 234.792 222.363 206.19 186.444 163.496 137.76 109.683 79.6957 48.3552 16.2165 -0.289344 -0.284334 -0.274562 -0.260087 -0.241008 -0.217922 -0.191143 -0.161061 -0.128356 -0.0933744 -0.0566401 -0.018966 251.759 247.463 238.917 226.272 209.793 189.698 166.37 140.182 111.568 81.0998 49.2358 16.5084 -16.2165 -48.3552 -79.6957 -109.683 -137.76 -163.496 -186.444 -206.19 -222.363 -234.792 -243.203 -247.424 0.018966 0.0566401 0.0933744 0.128356 0.161061 0.191143 0.217922 0.241008 0.260087 0.274562 0.284334 0.289344 -16.5084 -49.2358 -81.0998 -111.568 -140.182 -166.37 -189.698 -209.793 -226.272 -238.917 -247.463 -251.759 -247.431 -243.219 -234.81 -222.358 -206.171 -186.437 -163.498 -137.769 -109.671 -79.7029 -48.3709 -16.2168 0.289319 0.284338 0.274566 0.260167 0.241065 0.217974 0.19121 0.161051 0.128235 0.0932608 0.0564865 0.0189746 -251.772 -247.487 -238.924 -226.253 -209.79 -189.712 -166.356 -140.171 -111.574 -81.0971 -49.227 -16.5011 16.2168 48.3709 79.7029 109.671 137.769 163.498 186.437 206.171 222.358 234.81 243.219 247.431 -0.0189746 -0.0564865 -0.0932608 -0.128235 -0.161051 -0.19121 -0.217974 -0.241065 -0.260167 -0.274566 -0.284338 -0.289319 16.5011 49.227 81.0971 111.574 140.171 166.356 189.712 209.79 226.253 238.924 247.487 251.772 247.424 243.203 234.792 222.363 206.19 186.444 163.496 137.76 109.683 79.6957 48.3552 16.2165 -0.289344 -0.284334 -0.274562 -0.260087 -0.241008 -0.217922 -0.191143 -0.161061 -0.128356 -0.0933744 -0.0566401 -0.018966 251.759 247.463 238.917 226.272 209.793 189.698 166.37 140.182 111.568 81.0998 49.2358 16.5084 -16.2165 -48.3552 -79.6957 -109.683 -137.76 -163.496 -186.444 -206.19 -222.363 -234.792 -243.203 -247.424 0.018966 0.0566401 0.0933744 0.128356 0.161061 0.191143 0.217922 0.241008 0.260087 0.274562 0.284334 0.289344 -16.5084 -49.2358 -81.0998 -111.568 -140.182 -166.37 -189.698 -209.793 -226.272 -238.917 -247.463 -251.759 -247.431 -243.219 -234.81 -222.358 -206.171 -186.437 -163.498 -137.769 -109.671 -79.7029 -48.3709 -16.2168 0.289319 0.284338 0.274566 0.260167 0.241065 0.217974 0.19121 0.161051 0.128235 0.0932608 0.0564865 0.0189746 -251.772 -247.487 -238.924 -226.253 -209.79 -189.712 -166.356 -140.171 -111.574 -81.0971 -49.227 -16.5011 
</DataArray>
<DataArray Name="Stress_23" format="ascii" type="Float64">
-437.258 -433.028 -424.63 -412.215 -396.002 -376.253 -353.315 -327.581 -299.516 -269.539 -238.198 -206.052 0.641557 0.636671 0.626985 0.612505 0.593493 0.570514 0.543666 0.513509 0.480755 0.445724 0.409055 0.371453 -437.29 -432.981 -424.441 -411.817 -395.307 -375.212 -351.881 -325.695 -297.125 -266.624 -234.742 -202.032 -173.607 -141.424 -110.113 -80.2037 -52.0588 -26.3071 -3.37456 16.3796 32.5764 44.9844 53.37 57.6391 0.333468 0.29586 0.259228 0.22421 0.191356 0.161271 0.134464 0.11138 0.0924097 0.0779352 0.0681227 0.0631697 -169.015 -136.267 -104.416 -73.983 -45.3323 -19.1288 4.17197 24.2545 40.6984 53.4073 62.0113 66.2828 57.6391 53.37 44.9844 32.5764 16.3796 -3.37456 -26.3071 -52.0588 -80.2037 -110.113 -141.424 -173.607 0.0631697 0.0681227 0.0779352 0.0924097 0.11138 0.134464 0.161271 0.191356 0.22421 0.259228 0.29586 0.333468 66.2828 62.0113 53.4073 40.6984 24.2545 4.17197 -19.1288 -45.3323 -73.983 -104.416 -136.267 -169.015 -206.052 -238.198 -269.539 -299.516 -327.581 -353.315 -376.253 -396.002 -412.215 -424.63 -433.028 -437.258 0.371453 0.409055 0.445724 0.480755 0.513509 0.543666 0.570514 0.593493 0.612505 0.626985 0.636671 0.641557 -202.032 -234.742 -266.624 -297.125 -325.695 -351.881 -375.212 -395.307 -411.817 -424.441 -432.981 -437.29 -437.258 -433.028 -424.63 -412.215 -396.002 -376.253 -353.315 -327.581 -299.516 -269.539 -238.198 -206.052 0.641557 0.636671 0.626985 0.612505 0.593493 0.570514 0.543666 0.513509 0.480755 0.445724 0.409055 0.371453 -437.29 -432.981 -424.441 -411.817 -395.307 -375.212 -351.881 -325.695 -297.125 -266.624 -234.742 -202.032 -173.607 -141.424 -110.113 -80.2037 -52.0588 -26.3071 -3.37456 16.3796 32.5764 44.9844 53.37 57.6391 0.333468 0.29586 0.259228 0.22421 0.191356 0.161271 0.134464 0.11138 0.0924097 0.0779352 0.0681227 0.0631697 -169.015 -136.267 -104.416 -73.983 -45.3323 -19.1288 4.17197 24.2545 40.6984 53.4073 62.0113 66.2828 57.6391 53.37 44.9844 32.5764 16.3796 -3.37456 -26.3071 -52.0588 -80.2037 -110.113 -141.424 -173.607 0.0631697 0.0681227 0.0779352 0.0924097 0.11138 0.134464 0.161271 0.191356 0.22421 0.259228 0.29586 0.333468 66.2828 62.0113 53.4073 40.6984 24.2545 4.17197 -19.1288 -45.3323 -73.983 -104.416 -136.267 -169.015 -206.052 -238.198 -269.539 -299.516 -327.581 -353.315 -376.253 -396.002 -412.215 -424.63 -433.028 -437.258 0.371453 0.409055 0.445724 0.480755 0.513509 0.543666 0.570514 0.593493 0.612505 0.626985 0.636671 0.641557 -202.032 -234.742 -266.624 -297.125 -325.695 -351.881 -375.212 -395.307 -411.817 -424.441 -432.981 -437.29 
</DataArray>
<DataArray Name="Stress_33" format="ascii" type="Float64">
0 0 0 0 0 0 0 0 0 0 0 0 0 0 0 0 0 0 0 0 0 0 0 0 0 0 0 0 0 0 0 0 0 0 0 0 0 0 0 0 0 0 0 0 0 0 0 0 0 0 0 0 0 0 0 0 0 0 0 0 0 0 0 0 0 0 0 0 0 0 0 0 0 0 0 0 0 0 0 0 0 0 0 0 0 0 0 0 0 0 0 0 0 0 0 0 0 0 0 0 0 0 0 0 0 0 0 0 0 0 0 0 0 0 0 0 0 0 0 0 0 0 0 0 0 0 0 0 0 0 0 0 0 0 0 0 0 0 0 0 0 0 0 0 0 0 0 0 0 0 0 0 0 0 0 0 0 0 0 0 0 0 0 0 0 0 0 0 0 0 0 0 0 0 0 0 0 0 0 0 0 0 0 0 0 0 0 0 0 0 0 0 0 0 0 0 0 0 0 0 0 0 0 0 0 0 0 0 0 0 0 0 0 0 0 0 0 0 0 0 0 0 0 0 0 0 0 0 0 0 0 0 0 0 0 0 0 0 0 0 0 0 0 0 0 0 0 0 0 0 0 0 0 0 0 0 0 0 0 0 0 0 0 0 0 0 0 0 0 0 0 0 0 0 0 0 0 0 0 0 0 0 0 0 0 0 0 0 
</DataArray>
</CellData>
<Points>
<DataArray NumberOfComponents="3" format="ascii" type="Float64">
0 0.09 0 -0.06364 0.06364 0 -0.005886 0.089807 0 -0.011747 0.08923 0 -0.017558 0.088271 0 -0.023294 0.086933 0 -0.02893 0.085224 0 -0.034442 0.083149 0 -0.039806 0.080719 0 -0.045 0.077942 0 -0.050001 0.074832 0 -0.054789 0.071402 0 -0.059341 0.067666 0 -0.065997 0.065997 0 0 0.093333 0 -0.006104 0.093133 0 -0.012182 0.092535 0 -0.018208 0.09154 0 -0.024156 0.090153 0 -0.030001 0.08838 0 -0.035717 0.086229 0 -0.04128 0.083708 0 -0.046667 0.080829 0 -0.051853 0.077604 0 -0.056818 0.074046 0 -0.061539 0.070172 0 -0.068354 0.068354 0 0 0.096667 0 -0.006322 0.09646 0 -0.012618 0.09584 0 -0.018859 0.094809 0 -0.025019 0.093373 0 -0.031072 0.091537 0 -0.036993 0.089308 0 -0.042755 0.086698 0 -0.048333 0.083716 0 -0.053705 0.080375 0 -0.058847 0.076691 0 -0.063737 0.072678 0 -0.070711 0.070711 0 0 0.1 0 -0.00654 0.099786 0 -0.013053 0.099144 0 -0.019509 0.098079 0 -0.025882 0.096593 0 -0.032144 0.094693 0 -0.038268 0.092388 0 -0.044229 0.089687 0 -0.05 0.086603 0 -0.055557 0.083147 0 -0.060876 0.079335 0 -0.065935 0.075184 0 -0.09 0 0 -0.067666 0.059341 0 -0.071402 0.054789 0 -0.074832 0.050001 0 -0.077942 0.045 0 -0.080719 0.039806 0 -0.083149 0.034442 0 -0.085224 0.02893 0 -0.086933 0.023294 0 -0.088271 0.017558 0 -0.08923 0.011747 0 -0.089807 0.005886 0 -0.093333 0 0 -0.070172 0.061539 0 -0.074046 0.056818 0 -0.077604 0.051853 0 -0.080829 0.046667 0 -0.083708 0.04128 0 -0.086229 0.035717 0 -0.08838 0.030001 0 -0.090153 0.024156 0 -0.09154 0.018208 0 -0.092535 0.012182 0 -0.093133 0.006104 0 -0.096667 0 0 -0.072678 0.063737 0 -0.076691 0.058847 0 -0.080375 0.053705 0 -0.083716 0.048333 0 -0.086698 0.042755 0 -0.089308 0.036993 0 -0.091537 0.031072 0 -0.093373 0.025019 0 -0.094809 0.018859 0 -0.09584 0.012618 0 -0.09646 0.006322 0 -0.1 0 0 -0.075184 0.065935 0 -0.079335 0.060876 0 -0.083147 0.055557 0 -0.086603 0.05 0 -0.089687 0.044229 0 -0.092388 0.038268 0 -0.094693 0.032144 0 -0.096593 0.025882 0 -0.098079 0.019509 0 -0.099144 0.013053 0 -0.099786 0.00654 0 -0.06364 -0.06364 0 -0.089807 -0.005886 0 -0.08923 -0.011747 0 -0.088271 -0.017558 0 -0.086933 -0.023294 0 -0.085224 -0.02893 0 -0.083149 -0.034442 0 -0.080719 -0.039806 0 -0.077942 -0.045 0 -0.074832 -0.050001 0 -0.071402 -0.054789 0 -0.067666 -0.059341 0 -0.065997 -0.065997 0 -0.093133 -0.006104 0 -0.092535 -0.012182 0 -0.09154 -0.018208 0 -0.090153 -0.024156 0 -0.08838 -0.030001 0 -0.086229 -0.035717 0 -0.083708 -0.04128 0 -0.080829 -0.046667 0 -0.077604 -0.051853 0 -0.074046 -0.056818 0 -0.070172 -0.061539 0 -0.068354 -0.068354 0 -0.09646 -0.006322 0 -0.09584 -0.012618 0 -0.094809 -0.018859 0 -0.093373 -0.025019 0 -0.091537 -0.031072 0 -0.089308 -0.036993 0 -0.086698 -0.042755 0 -0.083716 -0.048333 0 -0.080375 -0.053705 0 -0.076691 -0.058847 0 -0.072678 -0.063737 0 -0.070711 -0.070711 0 -0.099786 -0.00654 0 -0.099144 -0.013053 0 -0.098079 -0.019509 0 -0.096593 -0.025882 0 -0.094693 -0.032144 0 -0.092388 -0.038268 0 -0.089687 -0.044229 0 -0.086603 -0.05 0 -0.083147 -0.055557 0 -0.079335 -0.060876 0 -0.075184 -0.065935 0 0 -0.09 0 -0.059341 -0.067666 0 -0.054789 -0.071402 0 -0.050001 -0.074832 0 -0.045 -0.077942 0 -0.039806 -0.080719 0 -0.034442 -0.083149 0 -0.02893 -0.085224 0 -0.023294 -0.086933 0 -0.017558 -0.088271 0 -0.011747 -0.08923 0 -0.005886 -0.089807 0 0 -0.093333 0 -0.061539 -0.070172 0 -0.056818 -0.074046 0 -0.051853 -0.077604 0 -0.046667 -0.080829 0 -0.04128 -0.083708 0 -0.035717 -0.086229 0 -0.030001 -0.08838 0 -0.024156 -0.090153 0 -0.018208 -0.09154 0 -0.012182 -0.092535 0 -0.006104 -0.093133 0 0 -0.096667 0 -0.063737 -0.072678 0 -0.058847 -0.076691 0 -0.053705 -0.080375 0 -0.048333 -0.083716 0 -0.042755 -0.086698 0 -0.036993 -0.089308 0 -0.031072 -0.091537 0 -0.025019 -0.093373 0 -0.018859 -0.094809 0 -0.012618 -0.09584 0 -0.006322 -0.09646 0 0 -0.1 0 -0.065935 -0.075184 0 -0.060876 -0.079335 0 -0.055557 -0.083147 0 -0.05 -0.086603 0 -0.044229 -0.089687 0 -0.038268 -0.092388 0 -0.032144 -0.094693 0 -0.025882 -0.096593 0 -0.019509 -0.098079 0 -0.013053 -0.099144 0 -0.00654 -0.099786 0 0.06364 -0.06364 0 0.005886 -0.089807 0 0.011747 -0.08923 0 0.017558 -0.088271 0 0.023294 -0.086933 0 0.02893 -0.085224 0 0.034442 -0.083149 0 0.039806 -0.080719 0 0.045 -0.077942 0 0.050001 -0.074832 0 0.054789 -0.071402 0 0.059341 -0.067666 0 0.065997 -0.065997 0 0.006104 -0.093133 0 0.012182 -0.092535 0 0.018208 -0.09154 0 0.024156 -0.090153 0 0.030001 -0.08838 0 0.035717 -0.086229 0 0.04128 -0.083708 0 0.046667 -0.080829 0 0.051853 -0.077604 0 0.056818 -0.074046 0 0.061539 -0.070172 0 0.068354 -0.068354 0 0.006322 -0.09646 0 0.012618 -0.09584 0 0.018859 -0.094809 0 0.025019 -0.093373 0 0.031072 -0.091537 0 0.036993 -0.089308 0 0.042755 -0.086698 0 0.048333 -0.083716 0 0.053705 -0.080375 0 0.058847 -0.076691 0 0.063737 -0.072678 0 0.070711 -0.070711 0 0.00654 -0.099786 0 0.013053 -0.099144 0 0.019509 -0.098079 0 0.025882 -0.096593 0 0.032144 -0.094693 0 0.038268 -0.092388 0 0.044229 -0.089687 0 0.05 -0.086603 0 0.055557 -0.083147 0 0.060876 -0.079335 0 0.065935 -0.075184 0 0.09 0 0 0.067666 -0.059341 0 0.071402 -0.054789 0 0.074832 -0.050001 0 0.077942 -0.045 0 0.080719 -0.039806 0 0.083149 -0.034442 0 0.085224 -0.02893 0 0.086933 -0.023294 0 0.088271 -0.017558 0 0.08923 -0.011747 0 0.089807 -0.005886 0 0.093333 0 0 0.070172 -0.061539 0 0.074046 -0.056818 0 0.077604 -0.051853 0 0.080829 -0.046667 0 0.083708 -0.04128 0 0.086229 -0.035717 0 0.08838 -0.030001 0 0.090153 -0.024156 0 0.09154 -0.018208 0 0.092535 -0.012182 0 0.093133 -0.006104 0 0.096667 0 0 0.072678 -0.063737 0 0.076691 -0.058847 0 0.080375 -0.053705 0 0.083716 -0.048333 0 0.086698 -0.042755 0 0.089308 -0.036993 0 0.091537 -0.031072 0 0.093373 -0.025019 0 0.094809 -0.018859 0 0.09584 -0.012618 0 0.09646 -0.006322 0 0.1 0 0 0.075184 -0.065935 0 0.079335 -0.060876 0 0.083147 -0.055557 0 0.086603 -0.05 0 0.089687 -0.044229 0 0.092388 -0.038268 0 0.094693 -0.032144 0 0.096593 -0.025882 0 0.098079 -0.019509 0 0.099144 -0.013053 0 0.099786 -0.00654 0 0.06364 0.06364 0 0.089807 0.005886 0 0.08923 0.011747 0 0.088271 0.017558 0 0.086933 0.023294 0 0.085224 0.02893 0 0.083149 0.034442 0 0.080719 0.039806 0 0.077942 0.045 0 0.074832 0.050001 0 0.071402 0.054789 0 0.067666 0.059341 0 0.065997 0.065997 0 0.093133 0.006104 0 0.092535 0.012182 0 0.09154 0.018208 0 0.090153 0.024156 0 0.08838 0.030001 0 0.086229 0.035717 0 0.083708 0.04128 0 0.080829 0.046667 0 0.077604 0.051853 0 0.074046 0.056818 0 0.070172 0.061539 0 0.068354 0.068354 0 0.09646 0.006322 0 0.09584 0.012618 0 0.094809 0.018859 0 0.093373 0.025019 0 0.091537 0.031072 0 0.089308 0.036993 0 0.086698 0.042755 0 0.083716 0.048333 0 0.080375 0.053705 0 0.076691 0.058847 0 0.072678 0.063737 0 0.070711 0.070711 0 0.099786 0.00654 0 0.099144 0.013053 0 0.098079 0.019509 0 0.096593 0.025882 0 0.094693 0.032144 0 0.092388 0.038268 0 0.089687 0.044229 0 0.086603 0.05 0 0.083147 0.055557 0 0.079335 0.060876 0 0.075184 0.065935 0 0.059341 0.067666 0 0.054789 0.071402 0 0.050001 0.074832 0 0.045 0.077942 0 0.039806 0.080719 0 0.034442 0.083149 0 0.02893 0.085224 0 0.023294 0.086933 0 0.017558 0.088271 0 0.011747 0.08923 0 0.005886 0.089807 0 0.061539 0.070172 0 0.056818 0.074046 0 0.051853 0.077604 0 0.046667 0.080829 0 0.04128 0.083708 0 0.035717 0.086229 0 0.030001 0.08838 0 0.024156 0.090153 0 0.018208 0.09154 0 0.012182 0.092535 0 0.006104 0.093133 0 0.063737 0.072678 0 0.058847 0.076691 0 0.053705 0.080375 0 0.048333 0.083716 0 0.042755 0.086698 0 0.036993 0.089308 0 0.031072 0.091537 0 0.025019 0.093373 0 0.018859 0.094809 0 0.012618 0.09584 0 0.006322 0.09646 0 0.065935 0.075184 0 0.060876 0.079335 0 0.055557 0.083147 0 0.05 0.086603 0 0.044229 0.089687 0 0.038268 0.092388 0 0.032144 0.094693 0 0.025882 0.096593 0 0.019509 0.098079 0 0.013053 0.099144 0 0.00654 0.099786 0 
</DataArray>
</Points>
<Cells>
<DataArray Name="connectivity" format="ascii" type="Int64">