<?xml version="1.0"?>
<VTKFile byte_order="LittleEndian" type="UnstructuredGrid" version="0.1">
<UnstructuredGrid>
<Piece NumberOfCells="288" NumberOfPoints="384">
<PointData>
<DataArray Name="Warping_X" format="ascii" type="Float64">
-2.21585e-13 0.44958 0.0586782 0.116355 0.172044 0.224789 0.273689 0.317901 0.356674 0.389341 0.415348 0.434261 0.44573 0.483544 -1.51372e-13 0.0631111 0.125145 0.185038 0.241765 0.294359 0.341913 0.383614 0.418759 0.44673 0.467063 0.479404 0.518693 -2.1075e-13 0.0676992 0.134252 0.198495 0.259342 0.315753 0.366768 0.411508 0.449194 0.479201 0.501015 0.514253 0.555127 -1.42786e-13 0.0724547 0.14368 0.212437 0.277563 0.337937 0.392527 0.440408 0.480752 0.512866 0.536203 0.550377 7.05351e-13 0.44573 0.434261 0.415349 0.389342 0.356674 0.317902 0.27369 0.22479 0.172045 0.116355 0.0586784 7.05415e-13 0.479404 0.467063 0.446731 0.41876 0.383614 0.341914 0.29436 0.241766 0.185039 0.125145 0.0631113 7.03815e-13 0.514253 0.501016 0.479201 0.449195 0.411509 0.36677 0.315754 0.259343 0.198496 0.134252 0.0676995 7.03757e-13 0.550377 0.536203 0.512866 0.480753 0.440409 0.392528 0.337938 0.277564 0.212437 0.14368 0.0724548 -0.44958 -0.0586784 -0.116355 -0.172045 -0.22479 -0.27369 -0.317902 -0.356674 -0.389342 -0.415349 -0.434261 -0.44573 -0.483544 -0.0631113 -0.125145 -0.185039 -0.241766 -0.29436 -0.341914 -0.383614 -0.41876 -0.446731 -0.467063 -0.479404 -0.518693 -0.0676995 -0.134252 -0.198496 -0.259343 -0.315754 -0.36677 -0.411509 -0.449195 -0.479201 -0.501016 -0.514253 -0.555127 -0.0724548 -0.14368 -0.212437 -0.277564 -0.337938 -0.392528 -0.440409 -0.480753 -0.512866 -0.536203 -0.550377 -2.29744e-13 -0.44573 -0.434261 -0.415348 -0.389341 -0.356674 -0.317901 -0.273689 -0.224789 -0.172044 -0.116355 -0.0586782 -1.5789e-13 -0.479404 -0.467063 -0.44673 -0.418759 -0.383614 -0.341913 -0.294359 -0.241765 -0.185038 -0.125145 -0.0631111 -2.09023e-13 -0.514253 -0.501015 -0.479201 -0.449194 -0.411508 -0.366768 -0.315753 -0.259342 -0.198495 -0.134252 -0.0676992 -1.41668e-13 -0.550377 -0.536203 -0.512866 -0.480752 -0.440408 -0.392527 -0.337937 -0.277563 -0.212437 -0.14368 -0.0724547 0.44958 0.0586782 0.116355 0.172044 0.224789 0.273689 0.317901 0.356674 0.389341 0.415348 0.434261 0.44573 0.483544 0.0631111 0.125145 0.185038 0.241765 0.294359 0.341913 0.383614 0.418759 0.44673 0.467063 0.479404 0.518693 0.0676992 0.134252 0.198495 0.259342 0.315753 0.366768 0.411508 0.449194 0.479201 0.501015 0.514253 0.555127 0.0724547 0.14368 0.212437 0.277563 0.337937 0.392527 0.440408 0.480752 0.512866 0.536203 0.550377 -1.72863e-13 0.44573 0.434261 0.415349 0.389342 0.356674 0.317902 0.27369 0.22479 0.172045 0.116355 0.0586784 -1.7289e-13 0.479404 0.467063 0.446731 0.41876 0.383614 0.341914 0.29436 0.241766 0.185039 0.125145 0.0631113 -1.68425e-13 0.514253 0.501016 0.479201 0.449195 0.411509 0.36677 0.315754 0.259343 0.198496 0.134252 0.0676995 -1.68404e-13 0.550377 0.536203 0.512866 0.480753 0.440409 0.392528 0.337938 0.277564 0.212437 0.14368 0.0724548 -0.44958 -0.0586784 -0.116355 -0.172045 -0.22479 -0.27369 -0.317902 -0.356674 -0.389342 -0.415349 -0.434261 -0.44573 -0.483544 -0.0631113 -0.125145 -0.185039 -0.241766 -0.29436 -0.341914 -0.383614 -0.41876 -0.446731 -0.467063 -0.479404 -0.518693 -0.0676995 -0.134252 -0.198496 -0.259343 -0.315754 -0.36677 -0.411509 -0.449195 -0.479201 -0.501016 -0.514253 -0.555127 -0.0724548 -0.14368 -0.212437 -0.277564 -0.337938 -0.392528 -0.440409 -0.480753 -0.512866 -0.536203 -0.550377 -0.44573 -0.434261 -0.415348 -0.389341 -0.356674 -0.317901 -0.273689 -0.224789 -0.172044 -0.116355 -0.0586782 -0.479404 -0.467063 -0.44673 -0.418759 -0.383614 -0.341913 -0.294359 -0.241765 -0.185038 -0.125145 -0.0631111 -0.514253 -0.501015 -0.479201 -0.449194 -0.411508 -0.366768 -0.315753 -0.259342 -0.198495 -0.134252 -0.0676992 -0.550377 -0.536203 -0.512866 -0.480752 -0.440408 -0.392527 -0.337937 -0.277563 -0.212437 -0.14368 -0.0724547 
</DataArray>
<DataArray Name="Warping_Y" format="ascii" type="Float64">
-0.449561 1.39141e-05 -0.445712 -0.434242 -0.415342 -0.389325 -0.356658 -0.317879 -0.273673 -0.22477 -0.17203 -0.116343 -0.0586713 1.20032e-05 -0.483524 -0.479385 -0.467052 -0.44672 -0.418745 -0.383603 -0.341904 -0.294348 -0.241755 -0.185033 -0.125133 -0.0631043 -1.24655e-05 -0.518704 -0.514266 -0.501029 -0.479213 -0.449211 -0.411521 -0.366775 -0.31577 -0.25936 -0.198502 -0.13426 -0.0677142 -1.33661e-05 -0.555136 -0.550388 -0.536214 -0.512884 -0.480767 -0.440421 -0.392545 -0.337947 -0.277578 -0.212449 -0.143688 -0.0724684 0.449588 0.0586991 0.116371 0.172058 0.224798 0.273701 0.317907 0.356686 0.389352 0.41537 0.434269 0.445739 0.483547 0.0631283 0.125157 0.185057 0.241779 0.294371 0.341928 0.383627 0.418769 0.446744 0.467076 0.479409 0.518678 0.0676894 0.134235 0.198478 0.259335 0.315745 0.36675 0.411496 0.449186 0.479189 0.501004 0.514241 0.555109 0.0724418 0.143661 0.212423 0.277552 0.33792 0.392519 0.440394 0.48074 0.512857 0.536187 0.550361 1.39141e-05 0.445739 0.434269 0.41537 0.389352 0.356686 0.317907 0.273701 0.224798 0.172058 0.116371 0.0586991 1.20032e-05 0.479409 0.467076 0.446744 0.418769 0.383627 0.341928 0.294371 0.241779 0.185057 0.125157 0.0631283 -1.24655e-05 0.514241 0.501004 0.479189 0.449186 0.411496 0.36675 0.315745 0.259335 0.198478 0.134235 0.0676894 -1.33661e-05 0.550361 0.536187 0.512857 0.48074 0.440394 0.392519 0.33792 0.277552 0.212423 0.143661 0.0724418 -0.449561 -0.0586713 -0.116343 -0.17203 -0.22477 -0.273673 -0.317879 -0.356658 -0.389325 -0.415342 -0.434242 -0.445712 -0.483524 -0.0631043 -0.125133 -0.185033 -0.241755 -0.294348 -0.341904 -0.383603 -0.418745 -0.44672 -0.467052 -0.479385 -0.518704 -0.0677142 -0.13426 -0.198502 -0.25936 -0.31577 -0.366775 -0.411521 -0.449211 -0.479213 -0.501029 -0.514266 -0.555136 -0.0724684 -0.143688 -0.212449 -0.277578 -0.337947 -0.392545 -0.440421 -0.480767 -0.512884 -0.536214 -0.550388 1.39141e-05 -0.445712 -0.434242 -0.415342 -0.389325 -0.356658 -0.317879 -0.273673 -0.22477 -0.17203 -0.116343 -0.0586713 1.20032e-05 -0.479385 -0.467052 -0.44672 -0.418745 -0.383603 -0.341904 -0.294348 -0.241755 -0.185033 -0.125133 -0.0631043 -1.24655e-05 -0.514266 -0.501029 -0.479213 -0.449211 -0.411521 -0.366775 -0.31577 -0.25936 -0.198502 -0.13426 -0.0677142 -1.33661e-05 -0.550388 -0.536214 -0.512884 -0.480767 -0.440421 -0.392545 -0.337947 -0.277578 -0.212449 -0.143688 -0.0724684 0.449588 0.0586991 0.116371 0.172058 0.224798 0.273701 0.317907 0.356686 0.389352 0.41537 0.434269 0.445739 0.483547 0.0631283 0.125157 0.185057 0.241779 0.294371 0.341928 0.383627 0.418769 0.446744 0.467076 0.479409 0.518678 0.0676894 0.134235 0.198478 0.259335 0.315745 0.36675 0.411496 0.449186 0.479189 0.501004 0.514241 0.555109 0.0724418 0.143661 0.212423 0.277552 0.33792 0.392519 0.440394 0.48074 0.512857 0.536187 0.550361 1.39141e-05 0.445739 0.434269 0.41537 0.389352 0.356686 0.317907 0.273701 0.224798 0.172058 0.116371 0.0586991 1.20032e-05 0.479409 0.467076 0.446744 0.418769 0.383627 0.341928 0.294371 0.241779 0.185057 0.125157 0.0631283 -1.24655e-05 0.514241 0.501004 0.479189 0.449186 0.411496 0.36675 0.315745 0.259335 0.198478 0.134235 0.0676894 -1.33661e-05 0.550361 0.536187 0.512857 0.48074 0.440394 0.392519 0.33792 0.277552 0.212423 0.143661 0.0724418 -0.0586713 -0.116343 -0.17203 -0.22477 -0.273673 -0.317879 -0.356658 -0.389325 -0.415342 -0.434242 -0.445712 -0.0631043 -0.125133 -0.185033 -0.241755 -0.294348 -0.341904 -0.383603 -0.418745 -0.44672 -0.467052 -0.479385 -0.0677142 -0.13426 -0.198502 -0.25936 -0.31577 -0.366775 -0.411521 -0.449211 -0.479213 -0.501029 -0.514266 -0.0724684 -0.143688 -0.212449 -0.277578 -0.337947 -0.392545 -0.440421 -0.480767 -0.512884 -0.536214 -0.550388 
</DataArray>
<DataArray Name="Warping_Z" format="ascii" type="Float64">
0 0 0 0 0 0 0 0 0 0 0 0 0 0 0 0 0 0 0 0 0 0 0 0 0 0 0 0 0 0 0 0 0 0 0 0 0 0 0 0 0 0 0 0 0 0 0 0 0 0 0 0 0 0 0 0 0 0 0 0 0 0 0 0 0 0 0 0 0 0 0 0 0 0 0 0 0 0 0 0 0 0 0 0 0 0 0 0 0 0 0 0 0 0 0 0 0 0 0 0 0 0 0 0 0 0 0 0 0 0 0 0 0 0 0 0 0 0 0 0 0 0 0 0 0 0 0 0 0 0 0 0 0 0 0 0 0 0 0 0 0 0 0 0 0 0 0 0 0 0 0 0 0 0 0 0 0 0 0 0 0 0 0 0 0 0 0 0 0 0 0 0 0 0 0 0 0 0 0 0 0 0 0 0 0 0 0 0 0 0 0 0 0 0 0 0 0 0 0 0 0 0 0 0 0 0 0 0 0 0 0 0 0 0 0 0 0 0 0 0 0 0 0 0 0 0 0 0 0 0 0 0 0 0 0 0 0 0 0 0 0 0 0 0 0 0 0 0 0 0 0 0 0 0 0 0 0 0 0 0 0 0 0 0 0 0 0 0 0 0 0 0 0 0 0 0 0 0 0 0 0 0 0 0 0 0 0 0 0 0 0 0 0 0 0 0 0 0 0 0 0 0 0 0 0 0 0 0 0 0 0 0 0 0 0 0 0 0 0 0 0 0 0 0 0 0 0 0 0 0 0 0 0 0 0 0 0 0 0 0 0 0 0 0 0 0 0 0 0 0 0 0 0 0 0 0 0 0 0 0 0 0 0 0 0 0 0 0 0 0 0 0 0 0 0 0 0 0 0 0 0 0 0 0 
</DataArray>
</PointData>
<CellData>
<DataArray Name="MaterialId" format="ascii" type="Float64">
1 1 1 1 1 1 1 1 1 1 1 1 2 2 2 2 2 2 2 2 2 2 2 2 1 1 1 1 1 1 1 1 1 1 1 1 1 1 1 1 1 1 1 1 1 1 1 1 2 2 2 2 2 2 2 2 2 2 2 2 1 1 1 1 1 1 1 1 1 1 1 1 1 1 1 1 1 1 1 1 1 1 1 1 2 2 2 2 2 2 2 2 2 2 2 2 1 1 1 1 1 1 1 1 1 1 1 1 1 1 1 1 1 1 1 1 1 1 1 1 2 2 2 2 2 2 2 2 2 2 2 2 1 1 1 1 1 1 1 1 1 1 1 1 1 1 1 1 1 1 1 1 1 1 1 1 2 2 2 2 2 2 2 2 2 2 2 2 1 1 1 1 1 1 1 1 1 1 1 1 1 1 1 1 1 1 1 1 1 1 1 1 2 2 2 2 2 2 2 2 2 2 2 2 1 1 1 1 1 1 1 1 1 1 1 1 1 1 1 1 1 1 1 1 1 1 1 1 2 2 2 2 2 2 2 2 2 2 2 2 1 1 1 1 1 1 1 1 1 1 1 1 1 1 1 1 1 1 1 1 1 1 1 1 2 2 2 2 2 2 2 2 2 2 2 2 1 1 1 1 1 1 1 1 1 1 1 1 
</DataArray>
<DataArray Name="FiberAngle" format="ascii" type="Float64">
0 0 0 0 0 0 0 0 0 0 0 0 0 0 0 0 0 0 0 0 0 0 0 0 0 0 0 0 0 0 0 0 0 0 0 0 0 0 0 0 0 0 0 0 0 0 0 0 0 0 0 0 0 0 0 0 0 0 0 0 0 0 0 0 0 0 0 0 0 0 0 0 0 0 0 0 0 0 0 0 0 0 0 0 0 0 0 0 0 0 0 0 0 0 0 0 0 0 0 0 0 0 0 0 0 0 0 0 0 0 0 0 0 0 0 0 0 0 0 0 0 0 0 0 0 0 0 0 0 0 0 0 0 0 0 0 0 0 0 0 0 0 0 0 0 0 0 0 0 0 0 0 0 0 0 0 0 0 0 0 0 0 0 0 0 0 0 0 0 0 0 0 0 0 0 0 0 0 0 0 0 0 0 0 0 0 0 0 0 0 0 0 0 0 0 0 0 0 0 0 0 0 0 0 0 0 0 0 0 0 0 0 0 0 0 0 0 0 0 0 0 0 0 0 0 0 0 0 0 0 0 0 0 0 0 0 0 0 0 0 0 0 0 0 0 0 0 0 0 0 0 0 0 0 0 0 0 0 0 0 0 0 0 0 0 0 0 0 0 0 0 0 0 0 0 0 0 0 0 0 0 0 0 0 0 0 0 0 
</DataArray>
<DataArray Name="Strain_11" format="ascii" type="Float64">
-10.1685 -10.1249 -10.038 -9.90807 -9.73571 -9.52162 -9.26679 -8.97221 -8.63923 -8.26929 -7.86393 -7.42493 -10.5384 -10.493 -10.4024 -10.267 -10.0875 -9.86444 -9.59922 -9.2926 -8.94628 -8.56177 -8.14048 -7.68462 -10.9084 -10.8617 -10.7684 -10.629 -10.4441 -10.2144 -9.94096 -9.62496 -9.26773 -8.87082 -8.43593 -7.96497 -6.95408 -6.45352 -5.92527 -5.37173 -4.79522 -4.19811 -3.58318 -2.95276 -2.30981 -1.65689 -0.996992 -0.332797 -7.19597 -6.67669 -6.1291 -5.55549 -4.95855 -4.34047 -3.70387 -3.05191 -2.3872 -1.71239 -1.03029 -0.343919 -7.45989 -6.92287 -6.35618 -5.76237 -5.14393 -4.50339 -3.84368 -3.16744 -2.47774 -1.77752 -1.06948 -0.357005 0.332797 0.996992 1.65689 2.30981 2.95276 3.58318 4.19811 4.79522 5.37173 5.92527 6.45352 6.95408 0.343919 1.03029 1.71239 2.3872 3.05191 3.70387 4.34047 4.95855 5.55549 6.1291 6.67669 7.19597 0.357005 1.06948 1.77752 2.47774 3.16744 3.84368 4.50339 5.14393 5.76237 6.35618 6.92287 7.45989 7.42493 7.86393 8.26929 8.63923 8.97221 9.26679 9.52162 9.73571 9.90807 10.038 10.1249 10.1685 7.68462 8.14048 8.56177 8.94628 9.2926 9.59922 9.86444 10.0875 10.267 10.4024 10.493 10.5384 7.96497 8.43593 8.87082 9.26773 9.62496 9.94096 10.2144 10.4441 10.629 10.7684 10.8617 10.9084 10.1685 10.1249 10.038 9.90807 9.73571 9.52162 9.26679 8.97221 8.63923 8.26929 7.86393 7.42493 10.5384 10.493 10.4024 10.267 10.0875 9.86444 9.59922 9.2926 8.94628 8.56177 8.14048 7.68462 10.9084 10.8617 10.7684 10.629 10.4441 10.2144 9.94096 9.62496 9.26773 8.87082 8.43593 7.96497 6.95408 6.45352 5.92527 5.37173 4.79522 4.19811 3.58318 2.95276 2.30981 1.65689 0.996992 0.332797 7.19597 6.67669 6.1291 5.55549 4.95855 4.34047 3.70387 3.05191 2.3872 1.71239 1.03029 0.343919 7.45989 6.92287 6.35618 5.76237 5.14393 4.50339 3.84368 3.16744 2.47774 1.77752 1.06948 0.357005 -0.332797 -0.996992 -1.65689 -2.30981 -2.95276 -3.58318 -4.19811 -4.79522 -5.37173 -5.92527 -6.45352 -6.95408 -0.343919 -1.03029 -1.71239 -2.3872 -3.05191 -3.70387 -4.34047 -4.95855 -5.55549 -6.1291 -6.67669 -7.19597 -0.357005 -1.06948 -1.77752 -2.47774 -3.16744 -3.84368 -4.50339 -5.14393 -5.76237 -6.35618 -6.92287 -7.45989 -7.42493 -7.86393 -8.26929 -8.63923 -8.97221 -9.26679 -9.52162 -9.73571 -9.90807 -10.038 -10.1249 -10.1685 -7.68462 -8.14048 -8.56177 -8.94628 -9.2926 -9.59922 -9.86444 -10.0875 -10.267 -10.4024 -10.493 -10.5384 -7.96497 -8.43593 -8.87082 -9.26773 -9.62496 -9.94096 -10.2144 -10.4441 -10.629 -10.7684 -10.8617 -10.9084 
</DataArray>
<DataArray Name="Strain_22" format="ascii" type="Float64">
-10.168 -10.1245 -10.0377 -9.90782 -9.73556 -9.52167 -9.26699 -8.9726 -8.63983 -8.27006 -7.86487 -7.42602 -10.5293 -10.4846 -10.3952 -10.2615 -10.0841 -9.86361 -9.60097 -9.29755 -8.95412 -8.57231 -8.15389 -7.70036 -10.9073 -10.8606 -10.7674 -10.6282 -10.4434 -10.214 -9.94076 -9.62506 -9.26811 -8.87145 -8.43681 -7.96608 -6.9553 -6.45482 -5.92663 -5.37309 -4.79654 -4.19939 -3.58429 -2.95377 -2.31059 -1.65751 -0.997347 -0.332923 -7.21364 -6.69579 -6.14901 -5.5757 -4.97815 -4.35909 -3.72112 -3.06681 -2.39929 -1.72133 -1.0358 -0.345755 -7.46118 -6.9243 -6.35771 -5.76393 -5.14547 -4.50489 -3.84501 -3.16864 -2.47872 -1.77819 -1.06995 -0.357143 0.332923 0.997347 1.65751 2.31059 2.95377 3.58429 4.19939 4.79654 5.37309 5.92663 6.45482 6.9553 0.345755 1.0358 1.72133 2.39929 3.06681 3.72112 4.35909 4.97815 5.5757 6.14901 6.69579 7.21364 0.357143 1.06995 1.77819 2.47872 3.16864 3.84501 4.50489 5.14547 5.76393 6.35771 6.9243 7.46118 7.42602 7.86487 8.27006 8.63983 8.9726 9.26699 9.52167 9.73556 9.90782 10.0377 10.1245 10.168 7.70036 8.15389 8.57231 8.95412 9.29755 9.60097 9.86361 10.0841 10.2615 10.3952 10.4846 10.5293 7.96608 8.43681 8.87145 9.26811 9.62506 9.94076 10.214 10.4434 10.6282 10.7674 10.8606 10.9073 10.168 10.1245 10.0377 9.90782 9.73556 9.52167 9.26699 8.9726 8.63983 8.27006 7.86487 7.42602 10.5293 10.4846 10.3952 10.2615 10.0841 9.86361 9.60097 9.29755 8.95412 8.57231 8.15389 7.70036 10.9073 10.8606 10.7674 10.6282 10.4434 10.214 9.94076 9.62506 9.26811 8.87145 8.43681 7.96608 6.9553 6.45482 5.92663 5.37309 4.79654 4.19939 3.58429 2.95377 2.31059 1.65751 0.997347 0.332923 7.21364 6.69579 6.14901 5.5757 4.97815 4.35909 3.72112 3.06681 2.39929 1.72133 1.0358 0.345755 7.46118 6.9243 6.35771 5.76393 5.14547 4.50489 3.84501 3.16864 2.47872 1.77819 1.06995 0.357143 -0.332923 -0.997347 -1.65751 -2.31059 -2.95377 -3.58429 -4.19939 -4.79654 -5.37309 -5.92663 -6.45482 -6.9553 -0.345755 -1.0358 -1.72133 -2.39929 -3.06681 -3.72112 -4.35909 -4.97815 -5.5757 -6.14901 -6.69579 -7.21364 -0.357143 -1.06995 -1.77819 -2.47872 -3.16864 -3.84501 -4.50489 -5.14547 -5.76393 -6.35771 -6.9243 -7.46118 -7.42602 -7.86487 -8.27006 -8.63983 -8.9726 -9.26699 -9.52167 -9.73556 -9.90782 -10.0377 -10.1245 -10.168 -7.70036 -8.15389 -8.57231 -8.95412 -9.29755 -9.60097 -9.86361 -10.0841 -10.2615 -10.3952 -10.4846 -10.5293 -7.96608 -8.43681 -8.87145 -9.26811 -9.62506 -9.94076 -10.214 -10.4434 -10.6282 -10.7674 -10.8606 -10.9073 
</DataArray>
<DataArray Name="Strain_12" format="ascii" type="Float64">
-8.55504e-05 -0.000252778 -0.000405782 -0.00053439 -0.000669295 -0.000722593 -0.00079475 -0.00079873 -0.000748075 -0.000687031 -0.000587998 -0.000415096 -0.00141889 -0.00412948 -0.00664546 -0.0087418 -0.0104445 -0.0120137 -0.0126195 -0.0128154 -0.0125483 -0.0113773 -0.0098603 -0.00763775 -0.000130831 -0.000388269 -0.000621717 -0.000851924 -0.00103566 -0.00112309 -0.00127739 -0.00129526 -0.0012627 -0.00121149 -0.00109744 -0.000902384 -0.000262139 -4.54506e-05 0.000132923 0.000386636 0.000625697 0.000795852 0.00106673 0.00120293 0.00139332 0.0014967 0.00158979 0.00162969 -0.00502216 -0.00213135 0.00126433 0.00458054 0.00797579 0.011481 0.0145636 0.0173023 0.0197922 0.0217348 0.0230834 0.0236946 -0.000705345 -0.000448259 -0.000218931 9.76465e-05 0.000396579 0.000628892 0.000961981 0.00115027 0.00135615 0.00154386 0.00162962 0.00169283 0.00162969 0.00158979 0.0014967 0.00139332 0.00120293 0.00106673 0.000795852 0.000625697 0.000386636 0.000132923 -4.54506e-05 -0.000262139 0.0236946 0.0230834 0.0217348 0.0197922 0.0173023 0.0145636 0.011481 0.00797579 0.00458054 0.00126433 -0.00213135 -0.00502216 0.00169283 0.00162962 0.00154386 0.00135615 0.00115027 0.000961981 0.000628892 0.000396579 9.76465e-05 -0.000218931 -0.000448259 -0.000705345 -0.000415096 -0.000587998 -0.000687031 -0.000748075 -0.00079873 -0.00079475 -0.000722593 -0.000669295 -0.00053439 -0.000405782 -0.000252778 -8.55504e-05 -0.00763775 -0.0098603 -0.0113773 -0.0125483 -0.0128154 -0.0126195 -0.0120137 -0.0104445 -0.0087418 -0.00664546 -0.00412948 -0.00141889 -0.000902384 -0.00109744 -0.00121149 -0.0012627 -0.00129526 -0.00127739 -0.00112309 -0.00103566 -0.000851924 -0.000621717 -0.000388269 -0.000130831 8.55504e-05 0.000252778 0.000405782 0.00053439 0.000669295 0.000722593 0.00079475 0.00079873 0.000748075 0.000687031 0.000587998 0.000415096 0.00141889 0.00412948 0.00664546 0.0087418 0.0104445 0.0120137 0.0126195 0.0128154 0.0125483 0.0113773 0.0098603 0.00763775 0.000130831 0.000388269 0.000621717 0.000851924 0.00103566 0.00112309 0.00127739 0.00129526 0.0012627 0.00121149 0.00109744 0.000902384 0.000262139 4.54506e-05 -0.000132923 -0.000386636 -0.000625697 -0.000795852 -0.00106673 -0.00120293 -0.00139332 -0.0014967 -0.00158979 -0.00162969 0.00502216 0.00213135 -0.00126433 -0.00458054 -0.00797579 -0.011481 -0.0145636 -0.0173023 -0.0197922 -0.0217348 -0.0230834 -0.0236946 0.000705345 0.000448259 0.000218931 -9.76465e-05 -0.000396579 -0.000628892 -0.000961981 -0.00115027 -0.00135615 -0.00154386 -0.00162962 -0.00169283 -0.00162969 -0.00158979 -0.0014967 -0.00139332 -0.00120293 -0.00106673 -0.000795852 -0.000625697 -0.000386636 -0.000132923 4.54506e-05 0.000262139 -0.0236946 -0.0230834 -0.0217348 -0.0197922 -0.0173023 -0.0145636 -0.011481 -0.00797579 -0.00458054 -0.00126433 0.00213135 0.00502216 -0.00169283 -0.00162962 -0.00154386 -0.00135615 -0.00115027 -0.000961981 -0.000628892 -0.000396579 -9.76465e-05 0.000218931 0.000448259 0.000705345 0.000415096 0.000587998 0.000687031 0.000748075 0.00079873 0.00079475 0.000722593 0.000669295 0.00053439 0.000405782 0.000252778 8.55504e-05 0.00763775 0.0098603 0.0113773 0.0125483 0.0128154 0.0126195 0.0120137 0.0104445 0.0087418 0.00664546 0.00412948 0.00141889 0.000902384 0.00109744 0.00121149 0.0012627 0.00129526 0.00127739 0.00112309 0.00103566 0.000851924 0.000621717 0.000388269 0.000130831 
</DataArray>
<DataArray Name="Strain_13" format="ascii" type="Float64">
0 0 0 0 0 0 0 0 0 0 0 0 0 0 0 0 0 0 0 0 0 0 0 0 0 0 0 0 0 0 0 0 0 0 0 0 0 0 0 0 0 0 0 0 0 0 0 0 0 0 0 0 0 0 0 0 0 0 0 0 0 0 0 0 0 0 0 0 0 0 0 0 0 0 0 0 0 0 0 0 0 0 0 0 0 0 0 0 0 0 0 0 0 0 0 0 0 0 0 0 0 0 0 0 0 0 0 0 0 0 0 0 0 0 0 0 0 0 0 0 0 0 0 0 0 0 0 0 0 0 0 0 0 0 0 0 0 0 0 0 0 0 0 0 0 0 0 0 0 0 0 0 0 0 0 0 0 0 0 0 0 0 0 0 0 0 0 0 0 0 0 0 0 0 0 0 0 0 0 0 0 0 0 0 0 0 0 0 0 0 0 0 0 0 0 0 0 0 0 0 0 0 0 0 0 0 0 0 0 0 0 0 0 0 0 0 0 0 0 0 0 0 0 0 0 0 0 0 0 0 0 0 0 0 0 0 0 0 0 0 0 0 0 0 0 0 0 0 0 0 0 0 0 0 0 0 0 0 0 0 0 0 0 0 0 0 0 0 0 0 0 0 0 0 0 0 0 0 0 0 0 0 0 0 0 0 0 0 
</DataArray>
<DataArray Name="Strain_23" format="ascii" type="Float64">
0 0 0 0 0 0 0 0 0 0 0 0 0 0 0 0 0 0 0 0 0 0 0 0 0 0 0 0 0 0 0 0 0 0 0 0 0 0 0 0 0 0 0 0 0 0 0 0 0 0 0 0 0 0 0 0 0 0 0 0 0 0 0 0 0 0 0 0 0 0 0 0 0 0 0 0 0 0 0 0 0 0 0 0 0 0 0 0 0 0 0 0 0 0 0 0 0 0 0 0 0 0 0 0 0 0 0 0 0 0 0 0 0 0 0 0 0 0 0 0 0 0 0 0 0 0 0 0 0 0 0 0 0 0 0 0 0 0 0 0 0 0 0 0 0 0 0 0 0 0 0 0 0 0 0 0 0 0 0 0 0 0 0 0 0 0 0 0 0 0 0 0 0 0 0 0 0 0 0 0 0 0 0 0 0 0 0 0 0 0 0 0 0 0 0 0 0 0 0 0 0 0 0 0 0 0 0 0 0 0 0 0 0 0 0 0 0 0 0 0 0 0 0 0 0 0 0 0 0 0 0 0 0 0 0 0 0 0 0 0 0 0 0 0 0 0 0 0 0 0 0 0 0 0 0 0 0 0 0 0 0 0 0 0 0 0 0 0 0 0 0 0 0 0 0 0 0 0 0 0 0 0 0 0 0 0 0 0 
</DataArray>
<DataArray Name="Strain_33" format="ascii" type="Float64">
0.0915682 0.0911763 0.090394 0.0892242 0.0876725 0.0857455 0.0834513 0.0807995 0.0778018 0.074471 0.0708215 0.0668688 0.0948982 0.094492 0.093681 0.0924687 0.0908608 0.0888635 0.0864858 0.0837377 0.080631 0.077179 0.0733968 0.0693003 0.0982283 0.0978075 0.096968 0.0957135 0.094049 0.0919815 0.0895202 0.086676 0.0834602 0.079887 0.075972 0.0717317 0.0626292 0.0581217 0.0533652 0.0483802 0.0431882 0.0378112 0.0322725 0.0265952 0.020804 0.0149237 0.00897975 0.0029975 0.0649067 0.0602352 0.0553058 0.0501395 0.0447587 0.0391862 0.0334457 0.027562 0.0215605 0.0154668 0.0093065 0.0031065 0.0671843 0.0623487 0.0572462 0.0518988 0.0463293 0.0405613 0.0346192 0.0285292 0.0223173 0.0160097 0.00963325 0.0032155 -0.0029975 -0.00897975 -0.0149237 -0.020804 -0.0265952 -0.0322725 -0.0378112 -0.0431882 -0.0483802 -0.0533653 -0.0581217 -0.0626292 -0.0031065 -0.0093065 -0.0154668 -0.0215605 -0.027562 -0.0334457 -0.0391862 -0.0447587 -0.0501395 -0.0553058 -0.0602353 -0.0649067 -0.0032155 -0.00963325 -0.0160097 -0.0223173 -0.0285293 -0.0346192 -0.0405612 -0.0463293 -0.0518988 -0.0572462 -0.0623487 -0.0671843 -0.0668688 -0.0708215 -0.074471 -0.0778018 -0.0807995 -0.0834513 -0.0857455 -0.0876725 -0.0892242 -0.090394 -0.0911762 -0.0915682 -0.0693003 -0.0733967 -0.077179 -0.080631 -0.0837377 -0.0864858 -0.0888635 -0.0908607 -0.0924688 -0.093681 -0.094492 -0.0948983 -0.0717317 -0.075972 -0.079887 -0.0834602 -0.086676 -0.0895203 -0.0919815 -0.094049 -0.0957135 -0.096968 -0.0978075 -0.0982283 -0.0915682 -0.0911763 -0.090394 -0.0892242 -0.0876725 -0.0857455 -0.0834513 -0.0807995 -0.0778018 -0.074471 -0.0708215 -0.0668688 -0.0948982 -0.094492 -0.093681 -0.0924687 -0.0908608 -0.0888635 -0.0864858 -0.0837377 -0.080631 -0.077179 -0.0733968 -0.0693003 -0.0982283 -0.0978075 -0.096968 -0.0957135 -0.094049 -0.0919815 -0.0895202 -0.086676 -0.0834602 -0.079887 -0.075972 -0.0717317 -0.0626292 -0.0581217 -0.0533652 -0.0483802 -0.0431882 -0.0378112 -0.0322725 -0.0265952 -0.020804 -0.0149237 -0.00897975 -0.0029975 -0.0649067 -0.0602352 -0.0553058 -0.0501395 -0.0447587 -0.0391862 -0.0334457 -0.027562 -0.0215605 -0.0154668 -0.0093065 -0.0031065 -0.0671843 -0.0623487 -0.0572462 -0.0518988 -0.0463293 -0.0405613 -0.0346192 -0.0285292 -0.0223173 -0.0160097 -0.00963325 -0.0032155 0.0029975 0.00897975 0.0149237 0.020804 0.0265952 0.0322725 0.0378112 0.0431882 0.0483802 0.0533653 0.0581217 0.0626292 0.0031065 0.0093065 0.0154668 0.0215605 0.027562 0.0334457 0.0391862 0.0447587 0.0501395 0.0553058 0.0602353 0.0649067 0.0032155 0.00963325 0.0160097 0.0223173 0.0285293 0.0346192 0.0405612 0.0463293 0.0518988 0.0572462 0.0623487 0.0671843 0.0668688 0.0708215 0.074471 0.0778018 0.0807995 0.0834513 0.0857455 0.0876725 0.0892242 0.090394 0.0911762 0.0915682 0.0693003 0.0733967 0.077179 0.080631 0.0837377 0.0864858 0.0888635 0.0908607 0.0924688 0.093681 0.094492 0.0948983 0.0717317 0.075972 0.079887 0.0834602 0.086676 0.0895203 0.0919815 0.094049 0.0957135 0.096968 0.0978075 0.0982283 
</DataArray>
<DataArray Name="Stress_11" format="ascii" type="Float64">
-1409.73 -1403.7 -1391.65 -1373.64 -1349.74 -1320.07 -1284.74 -1243.91 -1197.75 -1146.47 -1090.27 -1029.41 -1.46078 -1.45451 -1.44197 -1.42325 -1.39842 -1.36757 -1.33087 -1.28845 -1.24052 -1.18728 -1.12896 -1.06582 -1512.3 -1505.82 -1492.89 -1473.57 -1447.94 -1416.1 -1378.2 -1334.4 -1284.88 -1229.86 -1169.57 -1104.28 -964.139 -894.744 -821.51 -744.767 -664.84 -582.055 -496.798 -409.395 -320.251 -229.727 -138.232 -46.142 -0.998128 -0.926175 -0.850281 -0.770764 -0.687988 -0.602272 -0.513976 -0.423525 -0.331292 -0.237651 -0.14299 -0.0477312 -1034.27 -959.818 -881.255 -798.93 -713.191 -624.386 -532.92 -439.164 -343.538 -246.452 -148.284 -49.4985 46.142 138.232 229.727 320.251 409.395 496.798 582.055 664.84 744.767 821.51 894.744 964.139 0.0477312 0.14299 0.237651 0.331292 0.423525 0.513976 0.602272 0.687988 0.770764 0.850281 0.926175 0.998128 49.4985 148.284 246.452 343.538 439.164 532.92 624.386 713.191 798.93 881.255 959.818 1034.27 1029.41 1090.27 1146.47 1197.75 1243.91 1284.74 1320.07 1349.74 1373.64 1391.65 1403.7 1409.73 1.06582 1.12896 1.18728 1.24052 1.28845 1.33087 1.36757 1.39842 1.42325 1.44197 1.45451 1.46078 1104.28 1169.57 1229.86 1284.88 1334.4 1378.2 1416.1 1447.94 1473.57 1492.89 1505.82 1512.3 1409.73 1403.7 1391.65 1373.64 1349.74 1320.07 1284.74 1243.91 1197.75 1146.47 1090.27 1029.41 1.46078 1.45451 1.44197 1.42325 1.39842 1.36757 1.33087 1.28845 1.24052 1.18728 1.12896 1.06582 1512.3 1505.82 1492.89 1473.57 1447.94 1416.1 1378.2 1334.4 1284.88 1229.86 1169.57 1104.28 964.139 894.744 821.51 744.767 664.84 582.055 496.798 409.395 320.251 229.727 138.232 46.142 0.998128 0.926175 0.850281 0.770764 0.687988 0.602272 0.513976 0.423525 0.331292 0.237651 0.14299 0.0477312 1034.27 959.818 881.255 798.93 713.191 624.386 532.92 439.164 343.538 246.452 148.284 49.4985 -46.142 -138.232 -229.727 -320.251 -409.395 -496.798 -582.055 -664.84 -744.767 -821.51 -894.744 -964.139 -0.0477312 -0.14299 -0.237651 -0.331292 -0.423525 -0.513976 -0.602272 -0.687988 -0.770764 -0.850281 -0.926175 -0.998128 -49.4985 -148.284 -246.452 -343.538 -439.164 -532.92 -624.386 -713.191 -798.93 -881.255 -959.818 -1034.27 -1029.41 -1090.27 -1146.47 -1197.75 -1243.91 -1284.74 -1320.07 -1349.74 -1373.64 -1391.65 -1403.7 -1409.73 -1.06582 -1.12896 -1.18728 -1.24052 -1.28845 -1.33087 -1.36757 -1.39842 -1.42325 -1.44197 -1.45451 -1.46078 -1104.28 -1169.57 -1229.86 -1284.88 -1334.4 -1378.2 -1416.1 -1447.94 -1473.57 -1492.89 -1505.82 -1512.3 
</DataArray>
<DataArray Name="Stress_22" format="ascii" type="Float64">
-1409.69 -1403.66 -1391.62 -1373.62 -1349.73 -1320.07 -1284.76 -1243.94 -1197.8 -1146.53 -1090.35 -1029.5 -1.46003 -1.4538 -1.44138 -1.42279 -1.39814 -1.3675 -1.33102 -1.28886 -1.24117 -1.18816 -1.13007 -1.06713 -1512.2 -1505.73 -1492.81 -1473.5 -1447.88 -1416.07 -1378.18 -1334.4 -1284.91 -1229.91 -1169.64 -1104.38 -964.24 -894.852 -821.623 -744.881 -664.95 -582.162 -496.891 -409.479 -320.316 -229.778 -138.261 -46.1526 -0.9996 -0.927767 -0.85194 -0.772449 -0.689622 -0.603823 -0.515414 -0.424766 -0.332299 -0.238396 -0.143449 -0.0478842 -1034.37 -959.937 -881.382 -799.061 -713.318 -624.511 -533.03 -439.263 -343.62 -246.508 -148.323 -49.51 46.1526 138.261 229.778 320.316 409.479 496.891 582.162 664.95 744.881 821.623 894.852 964.24 0.0478842 0.143449 0.238396 0.332299 0.424766 0.515414 0.603823 0.689622 0.772449 0.85194 0.927767 0.9996 49.51 148.323 246.508 343.62 439.263 533.03 624.511 713.318 799.061 881.382 959.937 1034.37 1029.5 1090.35 1146.53 1197.8 1243.94 1284.76 1320.07 1349.73 1373.62 1391.62 1403.66 1409.69 1.06713 1.13007 1.18816 1.24117 1.28886 1.33102 1.3675 1.39814 1.42279 1.44138 1.4538 1.46003 1104.38 1169.64 1229.91 1284.91 1334.4 1378.18 1416.07 1447.88 1473.5 1492.81 1505.73 1512.2 1409.69 1403.66 1391.62 1373.62 1349.73 1320.07 1284.76 1243.94 1197.8 1146.53 1090.35 1029.5 1.46003 1.4538 1.44138 1.42279 1.39814 1.3675 1.33102 1.28886 1.24117 1.18816 1.13007 1.06713 1512.2 1505.73 1492.81 1473.5 1447.88 1416.07 1378.18 1334.4 1284.91 1229.91 1169.64 1104.38 964.24 894.852 821.623 744.881 664.95 582.162 496.891 409.479 320.316 229.778 138.261 46.1526 0.9996 0.927767 0.85194 0.772449 0.689622 0.603823 0.515414 0.424766 0.332299 0.238396 0.143449 0.0478842 1034.37 959.937 881.382 799.061 713.318 624.511 533.03 439.263 343.62 246.508 148.323 49.51 -46.1526 -138.261 -229.778 -320.316 -409.479 -496.891 -582.162 -664.95 -744.881 -821.623 -894.852 -964.24 -0.0478842 -0.143449 -0.238396 -0.332299 -0.424766 -0.515414 -0.603823 -0.689622 -0.772449 -0.85194 -0.927767 -0.9996 -49.51 -148.323 -246.508 -343.62 -439.263 -533.03 -624.511 -713.318 -799.061 -881.382 -959.937 -1034.37 -1029.5 -1090.35 -1146.53 -1197.8 -1243.94 -1284.76 -1320.07 -1349.73 -1373.62 -1391.62 -1403.66 -1409.69 -1.06713 -1.13007 -1.18816 -1.24117 -1.28886 -1.33102 -1.3675 -1.39814 -1.42279 -1.44138 -1.4538 -1.46003 -1104.38 -1169.64 -1229.91 -1284.91 -1334.4 -1378.18 -1416.07 -1447.88 -1473.5 -1492.81 -1505.73 -1512.2 
</DataArray>
<DataArray Name="Stress_12" format="ascii" type="Float64">