<?xml version="1.0"?>
<VTKFile byte_order="LittleEndian" type="UnstructuredGrid" version="0.1">
<UnstructuredGrid>
<Piece NumberOfCells="288" NumberOfPoints="384">
<PointData>
<DataArray Name="Warping_X" format="ascii" type="Float64">
3.90203e-14 0.0319927 0.00295898 0.00590538 0.00882666 0.0117102 0.0145435 0.0173145 0.020011 0.0226221 0.0251362 0.0275432 0.0298316 0.0331776 3.59221e-14 0.00306857 0.00612407 0.00915342 0.0121436 0.0150819 0.0179554 0.020752 0.0234602 0.0260672 0.0285632 0.0309365 0.0343625 3.82822e-14 0.00317816 0.00634325 0.00948069 0.0125774 0.0156203 0.0185969 0.0214935 0.0242977 0.0269983 0.0295832 0.0320415 0.0355474 3.56887e-14 0.00328775 0.00656193 0.00980745 0.0130113 0.0161592 0.0192379 0.0222345 0.0251357 0.0279293 0.0306032 0.0331465 0.0452443 0.0340167 0.0358948 0.0376191 0.0391826 0.0405786 0.0418002 0.0428433 0.0437025 0.0443751 0.0448572 0.0451473 0.0469198 0.0352765 0.037224 0.0390126 0.0406339 0.0420812 0.0433485 0.0444299 0.0453212 0.0460185 0.0465187 0.0468193 0.0485959 0.0365363 0.0385537 0.0404057 0.0420852 0.0435843 0.0448964 0.046017 0.0469399 0.0476618 0.0481801 0.0484918 0.0502714 0.0377961 0.0398828 0.0417992 0.0435366 0.0450869 0.0464448 0.0476035 0.0485587 0.0493057 0.0498411 0.0501638 0.0319927 0.0451473 0.0448572 0.0443751 0.0437025 0.0428433 0.0418002 0.0405786 0.0391826 0.0376191 0.0358948 0.0340167 0.0331776 0.0468193 0.0465187 0.0460185 0.0453212 0.0444299 0.0433485 0.0420812 0.0406339 0.0390126 0.037224 0.0352765 0.0343625 0.0484918 0.0481801 0.0476618 0.0469399 0.046017 0.0448964 0.0435843 0.0420852 0.0404057 0.0385537 0.0365363 0.0355474 0.0501638 0.0498411 0.0493057 0.0485587 0.0476035 0.0464448 0.0450869 0.0435366 0.0417992 0.0398828 0.0377961 -1.78276e-14 0.0298316 0.0275432 0.0251362 0.0226221 0.020011 0.0173145 0.0145435 0.0117102 0.00882666 0.00590538 0.00295898 -2.07073e-14 0.0309365 0.0285632 0.0260672 0.0234602 0.020752 0.0179554 0.0150819 0.0121436 0.00915342 0.00612407 0.00306857 -1.8442e-14 0.0320415 0.0295832 0.0269983 0.0242977 0.0214935 0.0185969 0.0156203 0.0125774 0.00948069 0.00634325 0.00317816 -2.10879e-14 0.0331465 0.0306032 0.0279293 0.0251357 0.0222345 0.0192379 0.0161592 0.0130113 0.00980745 0.00656193 0.00328775 -0.0319927 -0.00295898 -0.00590538 -0.00882666 -0.0117102 -0.0145435 -0.0173145 -0.020011 -0.0226221 -0.0251362 -0.0275432 -0.0298316 -0.0331776 -0.00306857 -0.00612407 -0.00915342 -0.0121436 -0.0150819 -0.0179554 -0.020752 -0.0234602 -0.0260672 -0.0285632 -0.0309365 -0.0343625 -0.00317816 -0.00634325 -0.00948069 -0.0125774 -0.0156203 -0.0185969 -0.0214935 -0.0242977 -0.0269983 -0.0295832 -0.0320415 -0.0355474 -0.00328775 -0.00656193 -0.00980745 -0.0130113 -0.0161592 -0.0192379 -0.0222345 -0.0251357 -0.0279293 -0.0306032 -0.0331465 -0.0452443 -0.0340167 -0.0358948 -0.0376191 -0.0391826 -0.0405786 -0.0418002 -0.0428433 -0.0437025 -0.0443751 -0.0448572 -0.0451473 -0.0469198 -0.0352765 -0.037224 -0.0390126 -0.0406339 -0.0420812 -0.0433485 -0.0444299 -0.0453212 -0.0460185 -0.0465187 -0.0468193 -0.0485959 -0.0365363 -0.0385537 -0.0404057 -0.0420852 -0.0435843 -0.0448964 -0.046017 -0.0469399 -0.0476618 -0.0481801 -0.0484918 -0.0502714 -0.0377961 -0.0398828 -0.0417992 -0.0435366 -0.0450869 -0.0464448 -0.0476035 -0.0485587 -0.0493057 -0.0498411 -0.0501638 -0.0319927 -0.0451473 -0.0448572 -0.0443751 -0.0437025 -0.0428433 -0.0418002 -0.0405786 -0.0391826 -0.0376191 -0.0358948 -0.0340167 -0.0331776 -0.0468193 -0.0465187 -0.0460185 -0.0453212 -0.0444299 -0.0433485 -0.0420812 -0.0406339 -0.0390126 -0.037224 -0.0352765 -0.0343625 -0.0484918 -0.0481801 -0.0476618 -0.0469399 -0.046017 -0.0448964 -0.0435843 -0.0420852 -0.0404057 -0.0385537 -0.0365363 -0.0355474 -0.0501638 -0.0498411 -0.0493057 -0.0485587 -0.0476035 -0.0464448 -0.0450869 -0.0435366 -0.0417992 -0.0398828 -0.0377961 -0.0298316 -0.0275432 -0.0251362 -0.0226221 -0.020011 -0.0173145 -0.0145435 -0.0117102 -0.00882666 -0.00590538 -0.00295898 -0.0309365 -0.0285632 -0.0260672 -0.0234602 -0.020752 -0.0179554 -0.0150819 -0.0121436 -0.00915342 -0.00612407 -0.00306857 -0.0320415 -0.0295832 -0.0269983 -0.0242977 -0.0214935 -0.0185969 -0.0156203 -0.0125774 -0.00948069 -0.00634325 -0.00317816 -0.0331465 -0.0306032 -0.0279293 -0.0251357 -0.0222345 -0.0192379 -0.0161592 -0.0130113 -0.00980745 -0.00656193 -0.00328775 
</DataArray>
<DataArray Name="Warping_Y" format="ascii" type="Float64">
-0.0452443 -0.0319927 -0.0451473 -0.0448572 -0.0443751 -0.0437025 -0.0428433 -0.0418002 -0.0405786 -0.0391826 -0.0376191 -0.0358948 -0.0340167 -0.0331776 -0.0469198 -0.0468193 -0.0465187 -0.0460185 -0.0453212 -0.0444299 -0.0433485 -0.0420812 -0.0406339 -0.0390126 -0.037224 -0.0352765 -0.0343625 -0.0485959 -0.0484918 -0.0481801 -0.0476618 -0.0469399 -0.046017 -0.0448964 -0.0435843 -0.0420852 -0.0404057 -0.0385537 -0.0365363 -0.0355474 -0.0502714 -0.0501638 -0.0498411 -0.0493057 -0.0485587 -0.0476035 -0.0464448 -0.0450869 -0.0435366 -0.0417992 -0.0398828 -0.0377961 -5.17437e-14 -0.0298316 -0.0275432 -0.0251362 -0.0226221 -0.020011 -0.0173145 -0.0145435 -0.0117102 -0.00882666 -0.00590538 -0.00295898 -4.33397e-14 -0.0309365 -0.0285632 -0.0260672 -0.0234602 -0.020752 -0.0179554 -0.0150819 -0.0121436 -0.00915342 -0.00612407 -0.00306857 -4.80449e-14 -0.0320415 -0.0295832 -0.0269983 -0.0242977 -0.0214935 -0.0185969 -0.0156203 -0.0125774 -0.00948069 -0.00634325 -0.00317816 -4.05324e-14 -0.0331465 -0.0306032 -0.0279293 -0.0251357 -0.0222345 -0.0192379 -0.0161592 -0.0130113 -0.00980745 -0.00656193 -0.00328775 0.0319927 0.00295898 0.00590538 0.00882666 0.0117102 0.0145435 0.0173145 0.020011 0.0226221 0.0251362 0.0275432 0.0298316 0.0331776 0.00306857 0.00612407 0.00915342 0.0121436 0.0150819 0.0179554 0.020752 0.0234602 0.0260672 0.0285632 0.0309365 0.0343625 0.00317816 0.00634325 0.00948069 0.0125774 0.0156203 0.0185969 0.0214935 0.0242977 0.0269983 0.0295832 0.0320415 0.0355474 0.00328775 0.00656193 0.00980745 0.0130113 0.0161592 0.0192379 0.0222345 0.0251357 0.0279293 0.0306032 0.0331465 0.0452443 0.0340167 0.0358948 0.0376191 0.0391826 0.0405786 0.0418002 0.0428433 0.0437025 0.0443751 0.0448572 0.0451473 0.0469198 0.0352765 0.037224 0.0390126 0.0406339 0.0420812 0.0433485 0.0444299 0.0453212 0.0460185 0.0465187 0.0468193 0.0485959 0.0365363 0.0385537 0.0404057 0.0420852 0.0435843 0.0448964 0.046017 0.0469399 0.0476618 0.0481801 0.0484918 0.0502714 0.0377961 0.0398828 0.0417992 0.0435366 0.0450869 0.0464448 0.0476035 0.0485587 0.0493057 0.0498411 0.0501638 0.0319927 0.0451473 0.0448572 0.0443751 0.0437025 0.0428433 0.0418002 0.0405786 0.0391826 0.0376191 0.0358948 0.0340167 0.0331776 0.0468193 0.0465187 0.0460185 0.0453212 0.0444299 0.0433485 0.0420812 0.0406339 0.0390126 0.037224 0.0352765 0.0343625 0.0484918 0.0481801 0.0476618 0.0469399 0.046017 0.0448964 0.0435843 0.0420852 0.0404057 0.0385537 0.0365363 0.0355474 0.0501638 0.0498411 0.0493057 0.0485587 0.0476035 0.0464448 0.0450869 0.0435366 0.0417992 0.0398828 0.0377961 4.4679e-14 0.0298316 0.0275432 0.0251362 0.0226221 0.020011 0.0173145 0.0145435 0.0117102 0.00882666 0.00590538 0.00295898 3.73102e-14 0.0309365 0.0285632 0.0260672 0.0234602 0.020752 0.0179554 0.0150819 0.0121436 0.00915342 0.00612407 0.00306857 4.09889e-14 0.0320415 0.0295832 0.0269983 0.0242977 0.0214935 0.0185969 0.0156203 0.0125774 0.00948069 0.00634325 0.00317816 3.43777e-14 0.0331465 0.0306032 0.0279293 0.0251357 0.0222345 0.0192379 0.0161592 0.0130113 0.00980745 0.00656193 0.00328775 -0.0319927 -0.00295898 -0.00590538 -0.00882666 -0.0117102 -0.0145435 -0.0173145 -0.020011 -0.0226221 -0.0251362 -0.0275432 -0.0298316 -0.0331776 -0.00306857 -0.00612407 -0.00915342 -0.0121436 -0.0150819 -0.0179554 -0.020752 -0.0234602 -0.0260672 -0.0285632 -0.0309365 -0.0343625 -0.00317816 -0.00634325 -0.00948069 -0.0125774 -0.0156203 -0.0185969 -0.0214935 -0.0242977 -0.0269983 -0.0295832 -0.0320415 -0.0355474 -0.00328775 -0.00656193 -0.00980745 -0.0130113 -0.0161592 -0.0192379 -0.0222345 -0.0251357 -0.0279293 -0.0306032 -0.0331465 -0.0340167 -0.0358948 -0.0376191 -0.0391826 -0.0405786 -0.0418002 -0.0428433 -0.0437025 -0.0443751 -0.0448572 -0.0451473 -0.0352765 -0.037224 -0.0390126 -0.0406339 -0.0420812 -0.0433485 -0.0444299 -0.0453212 -0.0460185 -0.0465187 -0.0468193 -0.0365363 -0.0385537 -0.0404057 -0.0420852 -0.0435843 -0.0448964 -0.046017 -0.0469399 -0.0476618 -0.0481801 -0.0484918 -0.0377961 -0.0398828 -0.0417992 -0.0435366 -0.0450869 -0.0464448 -0.0476035 -0.0485587 -0.0493057 -0.0498411 -0.0501638 
</DataArray>
<DataArray Name="Warping_Z" format="ascii" type="Float64">
0 0 0 0 0 0 0 0 0 0 0 0 0 0 0 0 0 0 0 0 0 0 0 0 0 0 0 0 0 0 0 0 0 0 0 0 0 0 0 0 0 0 0 0 0 0 0 0 0 0 0 0 0 0 0 0 0 0 0 0 0 0 0 0 0 0 0 0 0 0 0 0 0 0 0 0 0 0 0 0 0 0 0 0 0 0 0 0 0 0 0 0 0 0 0 0 0 0 0 0 0 0 0 0 0 0 0 0 0 0 0 0 0 0 0 0 0 0 0 0 0 0 0 0 0 0 0 0 0 0 0 0 0 0 0 0 0 0 0 0 0 0 0 0 0 0 0 0 0 0 0 0 0 0 0 0 0 0 0 0 0 0 0 0 0 0 0 0 0 0 0 0 0 0 0 0 0 0 0 0 0 0 0 0 0 0 0 0 0 0 0 0 0 0 0 0 0 0 0 0 0 0 0 0 0 0 0 0 0 0 0 0 0 0 0 0 0 0 0 0 0 0 0 0 0 0 0 0 0 0 0 0 0 0 0 0 0 0 0 0 0 0 0 0 0 0 0 0 0 0 0 0 0 0 0 0 0 0 0 0 0 0 0 0 0 0 0 0 0 0 0 0 0 0 0 0 0 0 0 0 0 0 0 0 0 0 0 0 0 0 0 0 0 0 0 0 0 0 0 0 0 0 0 0 0 0 0 0 0 0 0 0 0 0 0 0 0 0 0 0 0 0 0 0 0 0 0 0 0 0 0 0 0 0 0 0 0 0 0 0 0 0 0 0 0 0 0 0 0 0 0 0 0 0 0 0 0 0 0 0 0 0 0 0 0 0 0 0 0 0 0 0 0 0 0 0 0 0 0 0 0 0 0 0 
</DataArray>
</PointData>
<CellData>
<DataArray Name="MaterialId" format="ascii" type="Float64">
1 1 1 1 1 1 1 1 1 1 1 1 2 2 2 2 2 2 2 2 2 2 2 2 1 1 1 1 1 1 1 1 1 1 1 1 1 1 1 1 1 1 1 1 1 1 1 1 2 2 2 2 2 2 2 2 2 2 2 2 1 1 1 1 1 1 1 1 1 1 1 1 1 1 1 1 1 1 1 1 1 1 1 1 2 2 2 2 2 2 2 2 2 2 2 2 1 1 1 1 1 1 1 1 1 1 1 1 1 1 1 1 1 1 1 1 1 1 1 1 2 2 2 2 2 2 2 2 2 2 2 2 1 1 1 1 1 1 1 1 1 1 1 1 1 1 1 1 1 1 1 1 1 1 1 1 2 2 2 2 2 2 2 2 2 2 2 2 1 1 1 1 1 1 1 1 1 1 1 1 1 1 1 1 1 1 1 1 1 1 1 1 2 2 2 2 2 2 2 2 2 2 2 2 1 1 1 1 1 1 1 1 1 1 1 1 1 1 1 1 1 1 1 1 1 1 1 1 2 2 2 2 2 2 2 2 2 2 2 2 1 1 1 1 1 1 1 1 1 1 1 1 1 1 1 1 1 1 1 1 1 1 1 1 2 2 2 2 2 2 2 2 2 2 2 2 1 1 1 1 1 1 1 1 1 1 1 1 
</DataArray>
<DataArray Name="FiberAngle" format="ascii" type="Float64">
0 0 0 0 0 0 0 0 0 0 0 0 0 0 0 0 0 0 0 0 0 0 0 0 0 0 0 0 0 0 0 0 0 0 0 0 0 0 0 0 0 0 0 0 0 0 0 0 0 0 0 0 0 0 0 0 0 0 0 0 0 0 0 0 0 0 0 0 0 0 0 0 0 0 0 0 0 0 0 0 0 0 0 0 0 0 0 0 0 0 0 0 0 0 0 0 0 0 0 0 0 0 0 0 0 0 0 0 0 0 0 0 0 0 0 0 0 0 0 0 0 0 0 0 0 0 0 0 0 0 0 0 0 0 0 0 0 0 0 0 0 0 0 0 0 0 0 0 0 0 0 0 0 0 0 0 0 0 0 0 0 0 0 0 0 0 0 0 0 0 0 0 0 0 0 0 0 0 0 0 0 0 0 0 0 0 0 0 0 0 0 0 0 0 0 0 0 0 0 0 0 0 0 0 0 0 0 0 0 0 0 0 0 0 0 0 0 0 0 0 0 0 0 0 0 0 0 0 0 0 0 0 0 0 0 0 0 0 0 0 0 0 0 0 0 0 0 0 0 0 0 0 0 0 0 0 0 0 0 0 0 0 0 0 0 0 0 0 0 0 0 0 0 0 0 0 0 0 0 0 0 0 0 0 0 0 0 0 
</DataArray>
<DataArray Name="Strain_11" format="ascii" type="Float64">
-0.502714 -0.502714 -0.502714 -0.502714 -0.502714 -0.502714 -0.502714 -0.502714 -0.502714 -0.502714 -0.502714 -0.502714 -0.502714 -0.502714 -0.502714 -0.502714 -0.502714 -0.502714 -0.502714 -0.502714 -0.502714 -0.502714 -0.502714 -0.502714 -0.502714 -0.502714 -0.502714 -0.502714 -0.502714 -0.502714 -0.502714 -0.502714 -0.502714 -0.502714 -0.502714 -0.502714 -0.502714 -0.502714 -0.502714 -0.502714 -0.502714 -0.502714 -0.502714 -0.502714 -0.502714 -0.502714 -0.502714 -0.502714 -0.502714 -0.502714 -0.502714 -0.502714 -0.502714 -0.502714 -0.502714 -0.502714 -0.502714 -0.502714 -0.502714 -0.502714 -0.502714 -0.502714 -0.502714 -0.502714 -0.502714 -0.502714 -0.502714 -0.502714 -0.502714 -0.502714 -0.502714 -0.502714 -0.502714 -0.502714 -0.502714 -0.502714 -0.502714 -0.502714 -0.502714 -0.502714 -0.502714 -0.502714 -0.502714 -0.502714 -0.502714 -0.502714 -0.502714 -0.502714 -0.502714 -0.502714 -0.502714 -0.502714 -0.502714 -0.502714 -0.502714 -0.502714 -0.502714 -0.502714 -0.502714 -0.502714 -0.502714 -0.502714 -0.502714 -0.502714 -0.502714 -0.502714 -0.502714 -0.502714 -0.502714 -0.502714 -0.502714 -0.502714 -0.502714 -0.502714 -0.502714 -0.502714 -0.502714 -0.502714 -0.502714 -0.502714 -0.502714 -0.502714 -0.502714 -0.502714 -0.502714 -0.502714 -0.502714 -0.502714 -0.502714 -0.502714 -0.502714 -0.502714 -0.502714 -0.502714 -0.502714 -0.502714 -0.502714 -0.502714 -0.502714 -0.502714 -0.502714 -0.502714 -0.502714 -0.502714 -0.502714 -0.502714 -0.502714 -0.502714 -0.502714 -0.502714 -0.502714 -0.502714 -0.502714 -0.502714 -0.502714 -0.502714 -0.502714 -0.502714 -0.502714 -0.502714 -0.502714 -0.502714 -0.502714 -0.502714 -0.502714 -0.502714 -0.502714 -0.502714 -0.502714 -0.502714 -0.502714 -0.502714 -0.502714 -0.502714 -0.502714 -0.502714 -0.502714 -0.502714 -0.502714 -0.502714 -0.502714 -0.502714 -0.502714 -0.502714 -0.502714 -0.502714 -0.502714 -0.502714 -0.502714 -0.502714 -0.502714 -0.502714 -0.502714 -0.502714 -0.502714 -0.502714 -0.502714 -0.502714 -0.502714 -0.502714 -0.502714 -0.502714 -0.502714 -0.502714 -0.502714 -0.502714 -0.502714 -0.502714 -0.502714 -0.502714 -0.502714 -0.502714 -0.502714 -0.502714 -0.502714 -0.502714 -0.502714 -0.502714 -0.502714 -0.502714 -0.502714 -0.502714 -0.502714 -0.502714 -0.502714 -0.502714 -0.502714 -0.502714 -0.502714 -0.502714 -0.502714 -0.502714 -0.502714 -0.502714 -0.502714 -0.502714 -0.502714 -0.502714 -0.502714 -0.502714 -0.502714 -0.502714 -0.502714 -0.502714 -0.502714 -0.502714 -0.502714 -0.502714 -0.502714 -0.502714 -0.502714 -0.502714 -0.502714 -0.502714 -0.502714 -0.502714 -0.502714 -0.502714 -0.502714 -0.502714 -0.502714 -0.502714 -0.502714 -0.502714 -0.502714 -0.502714 -0.502714 -0.502714 -0.502714 -0.502714 -0.502714 -0.502714 -0.502714 -0.502714 -0.502714 -0.502714 -0.502714 -0.502714 -0.502714 -0.502714 -0.502714 -0.502714 -0.502714 -0.502714 -0.502714 -0.502714 -0.502714 -0.502714 
</DataArray>
<DataArray Name="Strain_22" format="ascii" type="Float64">
-0.502714 -0.502714 -0.502714 -0.502714 -0.502714 -0.502714 -0.502714 -0.502714 -0.502714 -0.502714 -0.502714 -0.502714 -0.502714 -0.502714 -0.502714 -0.502714 -0.502714 -0.502714 -0.502714 -0.502714 -0.502714 -0.502714 -0.502714 -0.502714 -0.502714 -0.502714 -0.502714 -0.502714 -0.502714 -0.502714 -0.502714 -0.502714 -0.502714 -0.502714 -0.502714 -0.502714 -0.502714 -0.502714 -0.502714 -0.502714 -0.502714 -0.502714 -0.502714 -0.502714 -0.502714 -0.502714 -0.502714 -0.502714 -0.502714 -0.502714 -0.502714 -0.502714 -0.502714 -0.502714 -0.502714 -0.502714 -0.502714 -0.502714 -0.502714 -0.502714 -0.502714 -0.502714 -0.502714 -0.502714 -0.502714 -0.502714 -0.502714 -0.502714 -0.502714 -0.502714 -0.502714 -0.502714 -0.502714 -0.502714 -0.502714 -0.502714 -0.502714 -0.502714 -0.502714 -0.502714 -0.502714 -0.502714 -0.502714 -0.502714 -0.502714 -0.502714 -0.502714 -0.502714 -0.502714 -0.502714 -0.502714 -0.502714 -0.502714 -0.502714 -0.502714 -0.502714 -0.502714 -0.502714 -0.502714 -0.502714 -0.502714 -0.502714 -0.502714 -0.502714 -0.502714 -0.502714 -0.502714 -0.502714 -0.502714 -0.502714 -0.502714 -0.502714 -0.502714 -0.502714 -0.502714 -0.502714 -0.502714 -0.502714 -0.502714 -0.502714 -0.502714 -0.502714 -0.502714 -0.502714 -0.502714 -0.502714 -0.502714 -0.502714 -0.502714 -0.502714 -0.502714 -0.502714 -0.502714 -0.502714 -0.502714 -0.502714 -0.502714 -0.502714 -0.502714 -0.502714 -0.502714 -0.502714 -0.502714 -0.502714 -0.502714 -0.502714 -0.502714 -0.502714 -0.502714 -0.502714 -0.502714 -0.502714 -0.502714 -0.502714 -0.502714 -0.502714 -0.502714 -0.502714 -0.502714 -0.502714 -0.502714 -0.502714 -0.502714 -0.502714 -0.502714 -0.502714 -0.502714 -0.502714 -0.502714 -0.502714 -0.502714 -0.502714 -0.502714 -0.502714 -0.502714 -0.502714 -0.502714 -0.502714 -0.502714 -0.502714 -0.502714 -0.502714 -0.502714 -0.502714 -0.502714 -0.502714 -0.502714 -0.502714 -0.502714 -0.502714 -0.502714 -0.502714 -0.502714 -0.502714 -0.502714 -0.502714 -0.502714 -0.502714 -0.502714 -0.502714 -0.502714 -0.502714 -0.502714 -0.502714 -0.502714 -0.502714 -0.502714 -0.502714 -0.502714 -0.502714 -0.502714 -0.502714 -0.502714 -0.502714 -0.502714 -0.502714 -0.502714 -0.502714 -0.502714 -0.502714 -0.502714 -0.502714 -0.502714 -0.502714 -0.502714 -0.502714 -0.502714 -0.502714 -0.502714 -0.502714 -0.502714 -0.502714 -0.502714 -0.502714 -0.502714 -0.502714 -0.502714 -0.502714 -0.502714 -0.502714 -0.502714 -0.502714 -0.502714 -0.502714 -0.502714 -0.502714 -0.502714 -0.502714 -0.502714 -0.502714 -0.502714 -0.502714 -0.502714 -0.502714 -0.502714 -0.502714 -0.502714 -0.502714 -0.502714 -0.502714 -0.502714 -0.502714 -0.502714 -0.502714 -0.502714 -0.502714 -0.502714 -0.502714 -0.502714 -0.502714 -0.502714 -0.502714 -0.502714 -0.502714 -0.502714 -0.502714 -0.502714 -0.502714 -0.502714 -0.502714 -0.502714 -0.502714 -0.502714 -0.502714 -0.502714 -0.502714 -0.502714 -0.502714 
</DataArray>
<DataArray Name="Strain_12" format="ascii" type="Float64">
1.84728e-14 2.00411e-14 2.27636e-14 1.26212e-14 1.35431e-14 2.00029e-14 3.49966e-14 3.11238e-14 4.10268e-14 4.5153e-14 3.99528e-14 3.29597e-14 1.26563e-12 6.33009e-13 1.10539e-15 -5.69768e-13 -9.38139e-13 -1.11384e-12 -1.17795e-12 -1.21861e-12 -1.21185e-12 -1.15601e-12 -9.71155e-13 -5.48709e-13 -1.31597e-14 -1.36296e-14 3.48561e-15 -1.40273e-14 -2.35233e-14 -3.25298e-14 -3.14003e-14 -3.73156e-14 -3.74307e-14 -3.21341e-14 -2.88318e-14 -2.70781e-14 2.66838e-14 1.59766e-14 5.23737e-15 4.91018e-15 7.98863e-15 5.91367e-15 -6.41343e-15 1.32231e-14 1.5894e-14 1.94831e-14 2.38563e-14 8.55843e-15 1.17508e-13 9.41386e-13 1.87049e-12 2.9315e-12 4.0393e-12 5.00912e-12 5.7183e-12 6.23852e-12 6.4803e-12 6.29738e-12 5.59543e-12 4.47705e-12 -2.31521e-14 -9.24733e-15 -7.72614e-15 -1.38723e-16 6.61222e-15 2.79123e-14 3.2501e-14 3.07766e-14 3.13241e-14 4.28339e-14 1.18447e-14 1.87866e-14 3.11721e-15 2.33209e-14 2.18778e-14 3.15276e-14 2.57727e-14 1.74804e-14 1.09649e-14 2.46237e-14 1.35569e-14 1.29525e-14 1.02132e-14 3.52997e-15 3.04782e-12 1.42883e-12 -3.68684e-13 -2.11715e-12 -3.58633e-12 -4.54929e-12 -4.91191e-12 -4.78825e-12 -4.31959e-12 -3.49249e-12 -2.39405e-12 -1.14112e-12 1.41685e-14 6.29718e-15 -2.96401e-14 -4.12201e-14 -3.0004e-14 -2.71882e-14 -2.97546e-14 -3.54216e-14 -3.61453e-14 -2.54914e-14 -2.04119e-14 -1.109e-14 -5.07942e-16 -2.43653e-15 -4.53678e-16 -1.12269e-14 -2.11308e-14 -2.66451e-14 -3.9569e-15 -9.35953e-15 -8.05678e-15 -2.52896e-14 -2.73633e-14 -2.50117e-14 1.98917e-13 1.59215e-12 2.87867e-12 3.85037e-12 4.42112e-12 4.676e-12 4.71422e-12 4.31615e-12 3.39473e-12 2.03172e-12 5.43363e-13 -8.80952e-13 -3.49321e-16 7.56004e-15 1.79442e-14 2.41903e-14 3.67384e-14 2.79703e-14 3.20604e-14 2.85081e-14 3.83928e-14 1.2761e-14 1.25403e-14 -2.00531e-14 -2.50089e-15 -7.42051e-15 -1.31212e-14 -8.19095e-15 5.25162e-16 1.5541e-14 2.48028e-14 1.29987e-14 2.05506e-14 2.45582e-14 1.33281e-14 7.64565e-15 -2.03297e-12 -2.88731e-12 -3.32508e-12 -3.3985e-12 -3.20453e-12 -2.936e-12 -2.68988e-12 -2.39934e-12 -2.03102e-12 -1.65959e-12 -1.2705e-12 -7.73947e-13 -2.94168e-14 -3.52256e-14 -5.75362e-15 -2.47335e-14 -3.04965e-14 -4.77429e-14 -4.36926e-14 -2.90657e-14 -2.47668e-14 -1.94091e-14 -1.84021e-14 -1.79268e-14 2.65162e-15 1.35322e-15 -8.44603e-15 -9.7447e-15 -1.37111e-14 -8.42488e-15 -1.39667e-14 -1.82846e-14 -9.83981e-15 1.55554e-14 1.76596e-14 2.33554e-14 -1.42133e-13 5.29162e-13 1.17209e-12 1.80271e-12 2.40275e-12 2.95168e-12 3.36402e-12 3.68229e-12 3.98002e-12 4.18943e-12 4.07713e-12 3.5936e-12 -1.12585e-14 -1.59864e-15 6.04995e-15 9.46548e-15 5.51496e-15 1.47411e-14 1.70495e-14 1.7595e-14 1.41732e-14 2.9996e-14 1.78901e-14 3.2708e-14 1.10875e-14 2.13283e-14 3.52949e-14 2.53693e-14 2.19819e-14 2.9182e-14 2.63324e-14 3.22191e-14 2.43718e-14 2.16097e-14 2.4517e-14 1.57155e-14 2.69392e-12 1.5357e-12 1.5518e-13 -1.23099e-12 -2.37663e-12 -3.14011e-12 -3.49603e-12 -3.42972e-12 -3.02566e-12 -2.34013e-12 -1.46455e-12 -5.19841e-13 1.26071e-14 1.00629e-14 -2.72476e-14 -2.63652e-14 -2.11011e-14 -2.0743e-14 -2.48552e-14 -2.56415e-14 -3.17359e-14 -2.22939e-14 -1.27006e-14 -2.35128e-15 1.12499e-14 1.01826e-14 9.54632e-15 6.0094e-15 -1.63035e-15 -1.00467e-14 -3.97894e-15 -1.9456e-14 -2.1813e-14 -2.40714e-14 -1.04652e-14 -8.91929e-15 4.40064e-13 1.37701e-12 2.24502e-12 2.98512e-12 3.54617e-12 3.90818e-12 4.08434e-12 3.98214e-12 3.61744e-12 3.07495e-12 2.49531e-12 1.86329e-12 1.86416e-15 8.72207e-15 1.40528e-14 1.50236e-14 2.59139e-14 2.01392e-14 1.36679e-14 1.11668e-14 2.41792e-14 1.44093e-14 2.38968e-14 -8.81898e-15 
</DataArray>
<DataArray Name="Strain_13" format="ascii" type="Float64">
0 0 0 0 0 0 0 0 0 0 0 0 0 0 0 0 0 0 0 0 0 0 0 0 0 0 0 0 0 0 0 0 0 0 0 0 0 0 0 0 0 0 0 0 0 0 0 0 0 0 0 0 0 0 0 0 0 0 0 0 0 0 0 0 0 0 0 0 0 0 0 0 0 0 0 0 0 0 0 0 0 0 0 0 0 0 0 0 0 0 0 0 0 0 0 0 0 0 0 0 0 0 0 0 0 0 0 0 0 0 0 0 0 0 0 0 0 0 0 0 0 0 0 0 0 0 0 0 0 0 0 0 0 0 0 0 0 0 0 0 0 0 0 0 0 0 0 0 0 0 0 0 0 0 0 0 0 0 0 0 0 0 0 0 0 0 0 0 0 0 0 0 0 0 0 0 0 0 0 0 0 0 0 0 0 0 0 0 0 0 0 0 0 0 0 0 0 0 0 0 0 0 0 0 0 0 0 0 0 0 0 0 0 0 0 0 0 0 0 0 0 0 0 0 0 0 0 0 0 0 0 0 0 0 0 0 0 0 0 0 0 0 0 0 0 0 0 0 0 0 0 0 0 0 0 0 0 0 0 0 0 0 0 0 0 0 0 0 0 0 0 0 0 0 0 0 0 0 0 0 0 0 0 0 0 0 0 0 
</DataArray>
<DataArray Name="Strain_23" format="ascii" type="Float64">
0 0 0 0 0 0 0 0 0 0 0 0 0 0 0 0 0 0 0 0 0 0 0 0 0 0 0 0 0 0 0 0 0 0 0 0 0 0 0 0 0 0 0 0 0 0 0 0 0 0 0 0 0 0 0 0 0 0 0 0 0 0 0 0 0 0 0 0 0 0 0 0 0 0 0 0 0 0 0 0 0 0 0 0 0 0 0 0 0 0 0 0 0 0 0 0 0 0 0 0 0 0 0 0 0 0 0 0 0 0 0 0 0 0 0 0 0 0 0 0 0 0 0 0 0 0 0 0 0 0 0 0 0 0 0 0 0 0 0 0 0 0 0 0 0 0 0 0 0 0 0 0 0 0 0 0 0 0 0 0 0 0 0 0 0 0 0 0 0 0 0 0 0 0 0 0 0 0 0 0 0 0 0 0 0 0 0 0 0 0 0 0 0 0 0 0 0 0 0 0 0 0 0 0 0 0 0 0 0 0 0 0 0 0 0 0 0 0 0 0 0 0 0 0 0 0 0 0 0 0 0 0 0 0 0 0 0 0 0 0 0 0 0 0 0 0 0 0 0 0 0 0 0 0 0 0 0 0 0 0 0 0 0 0 0 0 0 0 0 0 0 0 0 0 0 0 0 0 0 0 0 0 0 0 0 0 0 0 
</DataArray>
<DataArray Name="Strain_33" format="ascii" type="Float64">
1 1 1 1 1 1 1 1 1 1 1 1 1 1 1 1 1 1 1 1 1 1 1 1 1 1 1 1 1 1 1 1 1 1 1 1 1 1 1 1 1 1 1 1 1 1 1 1 1 1 1 1 1 1 1 1 1 1 1 1 1 1 1 1 1 1 1 1 1 1 1 1 1 1 1 1 1 1 1 1 1 1 1 1 1 1 1 1 1 1 1 1 1 1 1 1 1 1 1 1 1 1 1 1 1 1 1 1 1 1 1 1 1 1 1 1 1 1 1 1 1 1 1 1 1 1 1 1 1 1 1 1 1 1 1 1 1 1 1 1 1 1 1 1 1 1 1 1 1 1 1 1 1 1 1 1 1 1 1 1 1 1 1 1 1 1 1 1 1 1 1 1 1 1 1 1 1 1 1 1 1 1 1 1 1 1 1 1 1 1 1 1 1 1 1 1 1 1 1 1 1 1 1 1 1 1 1 1 1 1 1 1 1 1 1 1 1 1 1 1 1 1 1 1 1 1 1 1 1 1 1 1 1 1 1 1 1 1 1 1 1 1 1 1 1 1 1 1 1 1 1 1 1 1 1 1 1 1 1 1 1 1 1 1 1 1 1 1 1 1 1 1 1 1 1 1 1 1 1 1 1 1 1 1 1 1 1 1 
</DataArray>
<DataArray Name="Stress_11" format="ascii" type="Float64">
-42.0436 -42.0436 -42.0436 -42.0436 -42.0436 -42.0436 -42.0436 -42.0436 -42.0436 -42.0436 -42.0436 -42.0436 -0.0420436 -0.0420436 -0.0420436 -0.0420436 -0.0420436 -0.0420436 -0.0420436 -0.0420436 -0.0420436 -0.0420436 -0.0420436 -0.0420436 -42.0436 -42.0436 -42.0436 -42.0436 -42.0436 -42.0436 -42.0436 -42.0436 -42.0436 -42.0436 -42.0436 -42.0436 -42.0436 -42.0436 -42.0436 -42.0436 -42.0436 -42.0436 -42.0436 -42.0436 -42.0436 -42.0436 -42.0436 -42.0436 -0.0420436 -0.0420436 -0.0420436 -0.0420436 -0.0420436 -0.0420436 -0.0420436 -0.0420436 -0.0420436 -0.0420436 -0.0420436 -0.0420436 -42.0436 -42.0436 -42.0436 -42.0436 -42.0436 -42.0436 -42.0436 -42.0436 -42.0436 -42.0436 -42.0436 -42.0436 -42.0436 -42.0436 -42.0436 -42.0436 -42.0436 -42.0436 -42.0436 -42.0436 -42.0436 -42.0436 -42.0436 -42.0436 -0.0420436 -0.0420436 -0.0420436 -0.0420436 -0.0420436 -0.0420436 -0.0420436 -0.0420436 -0.0420436 -0.0420436 -0.0420436 -0.0420436 -42.0436 -42.0436 -42.0436 -42.0436 -42.0436 -42.0436 -42.0436 -42.0436 -42.0436 -42.0436 -42.0436 -42.0436 -42.0436 -42.0436 -42.0436 -42.0436 -42.0436 -42.0436 -42.0436 -42.0436 -42.0436 -42.0436 -42.0436 -42.0436 -0.0420436 -0.0420436 -0.0420436 -0.0420436 -0.0420436 -0.0420436 -0.0420436 -0.0420436 -0.0420436 -0.0420436 -0.0420436 -0.0420436 -42.0436 -42.0436 -42.0436 -42.0436 -42.0436 -42.0436 -42.0436 -42.0436 -42.0436 -42.0436 -42.0436 -42.0436 -42.0436 -42.0436 -42.0436 -42.0436 -42.0436 -42.0436 -42.0436 -42.0436 -42.0436 -42.0436 -42.0436 -42.0436 -0.0420436 -0.0420436 -0.0420436 -0.0420436 -0.0420436 -0.0420436 -0.0420436 -0.0420436 -0.0420436 -0.0420436 -0.0420436 -0.0420436 -42.0436 -42.0436 -42.0436 -42.0436 -42.0436 -42.0436 -42.0436 -42.0436 -42.0436 -42.0436 -42.0436 -42.0436 -42.0436 -42.0436 -42.0436 -42.0436 -42.0436 -42.0436 -42.0436 -42.0436 -42.0436 -42.0436 -42.0436 -42.0436 -0.0420436 -0.0420436 -0.0420436 -0.0420436 -0.0420436 -0.0420436 -0.0420436 -0.0420436 -0.0420436 -0.0420436 -0.0420436 -0.0420436 -42.0436 -42.0436 -42.0436 -42.0436 -42.0436 -42.0436 -42.0436 -42.0436 -42.0436 -42.0436 -42.0436 -42.0436 -42.0436 -42.0436 -42.0436 -42.0436 -42.0436 -42.0436 -42.0436 -42.0436 -42.0436 -42.0436 -42.0436 -42.0436 -0.0420436 -0.0420436 -0.0420436 -0.0420436 -0.0420436 -0.0420436 -0.0420436 -0.0420436 -0.0420436 -0.0420436 -0.0420436 -0.0420436 -42.0436 -42.0436 -42.0436 -42.0436 -42.0436 -42.0436 -42.0436 -42.0436 -42.0436 -42.0436 -42.0436 -42.0436 -42.0436 -42.0436 -42.0436 -42.0436 -42.0436 -42.0436 -42.0436 -42.0436 -42.0436 -42.0436 -42.0436 -42.0436 -0.0420436 -0.0420436 -0.0420436 -0.0420436 -0.0420436 -0.0420436 -0.0420436 -0.0420436 -0.0420436 -0.0420436 -0.0420436 -0.0420436 -42.0436 -42.0436 -42.0436 -42.0436 -42.0436 -42.0436 -42.0436 -42.0436 -42.0436 -42.0436 -42.0436 -42.0436 
</DataArray>
<DataArray Name="Stress_22" format="ascii" type="Float64">
-42.0436 -42.0436 -42.0436 -42.0436 -42.0436 -42.0436 -42.0436 -42.0436 -42.0436 -42.0436 -42.0436 -42.0436 -0.0420436 -0.0420436 -0.0420436 -0.0420436 -0.0420436 -0.0420436 -0.0420436 -0.0420436 -0.0420436 -0.0420436 -0.0420436 -0.0420436 -42.0436 -42.0436 -42.0436 -42.0436 -42.0436 -42.0436 -42.0436 -42.0436 -42.0436 -42.0436 -42.0436 -42.0436 -42.0436 -42.0436 -42.0436 -42.0436 -42.0436 -42.0436 -42.0436 -42.0436 -42.0436 -42.0436 -42.0436 -42.0436 -0.0420436 -0.0420436 -0.0420436 -0.0420436 -0.0420436 -0.0420436 -0.0420436 -0.0420436 -0.0420436 -0.0420436 -0.0420436 -0.0420436 -42.0436 -42.0436 -42.0436 -42.0436 -42.0436 -42.0436 -42.0436 -42.0436 -42.0436 -42.0436 -42.0436 -42.0436 -42.0436 -42.0436 -42.0436 -42.0436 -42.0436 -42.0436 -42.0436 -42.0436 -42.0436 -42.0436 -42.0436 -42.0436 -0.0420436 -0.0420436 -0.0420436 -0.0420436 -0.0420436 -0.0420436 -0.0420436 -0.0420436 -0.0420436 -0.0420436 -0.0420436 -0.0420436 -42.0436 -42.0436 -42.0436 -42.0436 -42.0436 -42.0436 -42.0436 -42.0436 -42.0436 -42.0436 -42.0436 -42.0436 -42.0436 -42.0436 -42.0436 -42.0436 -42.0436 -42.0436 -42.0436 -42.0436 -42.0436 -42.0436 -42.0436 -42.0436 -0.0420436 -0.0420436 -0.0420436 -0.0420436 -0.0420436 -0.0420436 -0.0420436 -0.0420436 -0.0420436 -0.0420436 -0.0420436 -0.0420436 -42.0436 -42.0436 -42.0436 -42.0436 -42.0436 -42.0436 -42.0436 -42.0436 -42.0436 -42.0436 -42.0436 -42.0436 -42.0436 -42.0436 -42.0436 -42.0436 -42.0436 -42.0436 -42.0436 -42.0436 -42.0436 -42.0436 -42.0436 -42.0436 -0.0420436 -0.0420436 -0.0420436 -0.0420436 -0.0420436 -0.0420436 -0.0420436 -0.0420436 -0.0420436 -0.0420436 -0.0420436 -0.0420436 -42.0436 -42.0436 -42.0436 -42.0436 -42.0436 -42.0436 -42.0436 -42.0436 -42.0436 -42.0436 -42.0436 -42.0436 -42.0436 -42.0436 -42.0436 -42.0436 -42.0436 -42.0436 -42.0436 -42.0436 -42.0436 -42.0436 -42.0436 -42.0436 -0.0420436 -0.0420436 -0.0420436 -0.0420436 -0.0420436 -0.0420436 -0.0420436 -0.0420436 -0.0420436 -0.0420436 -0.0420436 -0.0420436 -42.0436 -42.0436 -42.0436 -42.0436 -42.0436 -42.0436 -42.0436 -42.0436 -42.0436 -42.0436 -42.0436 -42.0436 -42.0436 -42.0436 -42.0436 -42.0436 -42.0436 -42.0436 -42.0436 -42.0436 -42.0436 -42.0436 -42.0436 -42.0436 -0.0420436 -0.0420436 -0.0420436 -0.0420436 -0.0420436 -0.0420436 -0.0420436 -0.0420436 -0.0420436 -0.0420436 -0.0420436 -0.0420436 -42.0436 -42.0436 -42.0436 -42.0436 -42.0436 -42.0436 -42.0436 -42.0436 -42.0436 -42.0436 -42.0436 -42.0436 -42.0436 -42.0436 -42.0436 -42.0436 -42.0436 -42.0436 -42.0436 -42.0436 -42.0436 -42.0436 -42.0436 -42.0436 -0.0420436 -0.0420436 -0.0420436 -0.0420436 -0.0420436 -0.0420436 -0.0420436 -0.0420436 -0.0420436 -0.0420436 -0.0420436 -0.0420436 -42.0436 -42.0436 -42.0436 -42.0436 -42.0436 -42.0436 -42.0436 -42.0436 -42.0436 -42.0436 -42.0436 -42.0436 
</DataArray>
<DataArray Name="Stress_12" format="ascii" type="Float64">