<?xml version="1.0"?>
<VTKFile byte_order="LittleEndian" type="UnstructuredGrid" version="0.1">
<UnstructuredGrid>
<Piece NumberOfCells="100" NumberOfPoints="121">
<PointData>
<DataArray Name="Warping_X" format="ascii" type="Float64">
-0.321845 -7.02161e-17 -0.258197 -0.193782 -0.129242 -0.0646336 -4.46648e-17 -9.12273e-17 -9.08722e-17 -6.97045e-17 -5.38452e-17 1.20524e-17 -5.80275e-17 -5.39049e-17 -2.24847e-17 9.92623e-18 -0.0644991 -0.128983 -0.193422 -0.257751 -0.206453 -0.155007 -0.103388 -0.0517072 -0.154812 -0.116211 -0.0775246 -0.0387751 -0.103207 -0.0774531 -0.0516678 -0.0258443 -0.0516046 -0.0387213 -0.0258285 -0.0129195 0.321845 0.0646336 0.129242 0.193782 0.258197 8.29075e-17 0.257751 0.193422 0.128983 0.0644991 5.91639e-17 4.07551e-17 9.51563e-18 -1.96973e-17 0.0517072 0.103388 0.155007 0.206453 0.0387751 0.0775246 0.116211 0.154812 0.0258443 0.0516678 0.0774531 0.103207 0.0129195 0.0258285 0.0387213 0.0516046 -3.26316e-17 -3.97075e-17 -2.98983e-17 -2.54366e-17 -2.3491e-17 0.321845 0.0646336 0.129242 0.193782 0.258197 0.257751 0.193422 0.128983 0.0644991 0.0516046 0.0387213 0.0258285 0.0129195 0.103207 0.0774531 0.0516678 0.0258443 0.154812 0.116211 0.0775246 0.0387751 0.206453 0.155007 0.103388 0.0517072 -0.321845 -0.0644991 -0.128983 -0.193422 -0.257751 -0.258197 -0.193782 -0.129242 -0.0646336 -0.0129195 -0.0258285 -0.0387213 -0.0516046 -0.0258443 -0.0516678 -0.0774531 -0.103207 -0.0387751 -0.0775246 -0.116211 -0.154812 -0.0517072 -0.103388 -0.155007 -0.206453 
</DataArray>
<DataArray Name="Warping_Y" format="ascii" type="Float64">
0.0373099 0.136156 0.072878 0.100581 0.120351 0.132205 -0.0251548 0.0780243 0.0328612 0.000624685 -0.0187105 -0.123444 -0.0290809 -0.0408632 -0.0605126 -0.0880394 -0.11699 -0.0976295 -0.0653755 -0.0202785 0.0151202 0.0426065 0.062277 0.0740867 -0.0299691 -0.0024737 0.0171527 0.0289334 -0.0622237 -0.0347093 -0.0150747 -0.00329988 -0.0815848 -0.0540608 -0.0344155 -0.0226358 0.0373099 0.132205 0.120351 0.100581 0.072878 -0.123444 -0.0202785 -0.0653755 -0.0976295 -0.11699 -0.0880394 -0.0605126 -0.0408632 -0.0290809 0.0740867 0.062277 0.0426065 0.0151202 0.0289334 0.0171527 -0.0024737 -0.0299691 -0.00329988 -0.0150747 -0.0347093 -0.0622237 -0.0226358 -0.0344155 -0.0540608 -0.0815848 0.136156 -0.0187105 0.000624685 0.0328612 0.0780243 0.0373099 0.132205 0.120351 0.100581 0.072878 -0.0202785 -0.0653755 -0.0976295 -0.11699 -0.0815848 -0.0540608 -0.0344155 -0.0226358 -0.0622237 -0.0347093 -0.0150747 -0.00329988 -0.0299691 -0.0024737 0.0171527 0.0289334 0.0151202 0.0426065 0.062277 0.0740867 0.0373099 -0.11699 -0.0976295 -0.0653755 -0.0202785 0.072878 0.100581 0.120351 0.132205 -0.0226358 -0.0344155 -0.0540608 -0.0815848 -0.00329988 -0.0150747 -0.0347093 -0.0622237 0.0289334 0.0171527 -0.0024737 -0.0299691 0.0740867 0.062277 0.0426065 0.0151202 
</DataArray>
<DataArray Name="Warping_Z" format="ascii" type="Float64">
0 0 0 0 0 0 0 0 0 0 0 0 0 0 0 0 0 0 0 0 0 0 0 0 0 0 0 0 0 0 0 0 0 0 0 0 0 0 0 0 0 0 0 0 0 0 0 0 0 0 0 0 0 0 0 0 0 0 0 0 0 0 0 0 0 0 0 0 0 0 0 0 0 0 0 0 0 0 0 0 0 0 0 0 0 0 0 0 0 0 0 0 0 0 0 0 0 0 0 0 0 0 0 0 0 0 0 0 0 0 0 0 0 0 0 0 0 0 0 0 0 
</DataArray>
</PointData>
<CellData>
<DataArray Name="MaterialId" format="ascii" type="Float64">
3 3 3 3 3 3 3 3 3 3 3 3 3 3 3 3 3 3 3 3 3 3 3 3 3 3 3 3 3 3 3 3 3 3 3 3 3 3 3 3 3 3 3 3 3 3 3 3 3 3 3 3 3 3 3 3 3 3 3 3 3 3 3 3 3 3 3 3 3 3 3 3 3 3 3 3 3 3 3 3 3 3 3 3 3 3 3 3 3 3 3 3 3 3 3 3 3 3 3 3 
</DataArray>
<DataArray Name="FiberAngle" format="ascii" type="Float64">
22.5 22.5 22.5 22.5 22.5 22.5 22.5 22.5 22.5 22.5 22.5 22.5 22.5 22.5 22.5 22.5 22.5 22.5 22.5 22.5 22.5 22.5 22.5 22.5 22.5 22.5 22.5 22.5 22.5 22.5 22.5 22.5 22.5 22.5 22.5 22.5 22.5 22.5 22.5 22.5 22.5 22.5 22.5 22.5 22.5 22.5 22.5 22.5 22.5 22.5 22.5 22.5 22.5 22.5 22.5 22.5 22.5 22.5 22.5 22.5 22.5 22.5 22.5 22.5 22.5 22.5 22.5 22.5 22.5 22.5 22.5 22.5 22.5 22.5 22.5 22.5 22.5 22.5 22.5 22.5 22.5 22.5 22.5 22.5 22.5 22.5 22.5 22.5 22.5 22.5 22.5 22.5 22.5 22.5 22.5 22.5 22.5 22.5 22.5 22.5 
</DataArray>
<DataArray Name="Strain_11" format="ascii" type="Float64">
5.79189 5.79847 5.80223 5.80432 5.80518 4.5259 4.52185 4.51816 4.51674 4.51629 3.23145 3.23296 3.23075 3.22855 3.22749 1.93904 1.93976 1.93938 1.9382 1.9374 0.646318 0.646604 0.646539 0.64624 0.645977 -0.646318 -0.646604 -0.646539 -0.64624 -0.645977 -1.93904 -1.93976 -1.93938 -1.9382 -1.9374 -3.23145 -3.23296 -3.23075 -3.22855 -3.22749 -4.5259 -4.52185 -4.51816 -4.51674 -4.51629 -5.79189 -5.79847 -5.80223 -5.80432 -5.80518 5.80518 5.80432 5.80223 5.79847 5.79189 4.51629 4.51674 4.51816 4.52185 4.5259 3.22749 3.22855 3.23075 3.23296 3.23145 1.9374 1.9382 1.93938 1.93976 1.93904 0.645977 0.64624 0.646539 0.646604 0.646318 -0.645977 -0.64624 -0.646539 -0.646604 -0.646318 -1.9374 -1.9382 -1.93938 -1.93976 -1.93904 -3.22749 -3.22855 -3.23075 -3.23296 -3.23145 -4.51629 -4.51674 -4.51816 -4.52185 -4.5259 -5.80518 -5.80432 -5.80223 -5.79847 -5.79189 
</DataArray>
<DataArray Name="Strain_22" format="ascii" type="Float64">
3.54835 3.54026 3.54061 3.54056 3.54051 2.75947 2.74909 2.75049 2.75192 2.75254 1.97201 1.96484 1.96305 1.964 1.96473 1.18322 1.17953 1.17778 1.17773 1.1781 0.39441 0.393262 0.392614 0.39249 0.392564 -0.39441 -0.393262 -0.392614 -0.39249 -0.392564 -1.18322 -1.17953 -1.17778 -1.17773 -1.1781 -1.97201 -1.96484 -1.96305 -1.964 -1.96473 -2.75947 -2.74909 -2.75049 -2.75192 -2.75254 -3.54835 -3.54026 -3.54061 -3.54056 -3.54051 3.54051 3.54056 3.54061 3.54026 3.54835 2.75254 2.75192 2.75049 2.74909 2.75947 1.96473 1.964 1.96305 1.96484 1.97201 1.1781 1.17773 1.17778 1.17953 1.18322 0.392564 0.39249 0.392614 0.393262 0.39441 -0.392564 -0.39249 -0.392614 -0.393262 -0.39441 -1.1781 -1.17773 -1.17778 -1.17953 -1.18322 -1.96473 -1.964 -1.96305 -1.96484 -1.97201 -2.75254 -2.75192 -2.75049 -2.74909 -2.75947 -3.54051 -3.54056 -3.54061 -3.54026 -3.54835 
</DataArray>
<DataArray Name="Strain_12" format="ascii" type="Float64">
-0.0200365 -0.0139776 -0.00619302 -0.00260748 -0.000717538 0.00642512 -0.00610877 -0.00672647 -0.00375448 -0.0011521 0.00554207 0.00508657 0.00044496 -0.000710896 -0.000332064 0.00482843 0.00762677 0.005608 0.00278763 0.000808728 0.00450733 0.00829568 0.00748277 0.00463737 0.00150746 0.00450733 0.00829568 0.00748277 0.00463737 0.00150746 0.00482843 0.00762677 0.005608 0.00278763 0.000808728 0.00554207 0.00508657 0.00044496 -0.000710896 -0.000332064 0.00642512 -0.00610877 -0.00672647 -0.00375448 -0.0011521 -0.0200365 -0.0139776 -0.00619302 -0.00260748 -0.000717538 0.000717538 0.00260748 0.00619302 0.0139776 0.0200365 0.0011521 0.00375448 0.00672647 0.00610877 -0.00642512 0.000332064 0.000710896 -0.00044496 -0.00508657 -0.00554207 -0.000808728 -0.00278763 -0.005608 -0.00762677 -0.00482843 -0.00150746 -0.00463737 -0.00748277 -0.00829568 -0.00450733 -0.00150746 -0.00463737 -0.00748277 -0.00829568 -0.00450733 -0.000808728 -0.00278763 -0.005608 -0.00762677 -0.00482843 0.000332064 0.000710896 -0.00044496 -0.00508657 -0.00554207 0.0011521 0.00375448 0.00672647 0.00610877 -0.00642512 0.000717538 0.00260748 0.00619302 0.0139776 0.0200365 
</DataArray>
<DataArray Name="Strain_13" format="ascii" type="Float64">
9.64627 9.64659 9.64722 9.64765 9.64787 7.50227 7.50251 7.50314 7.50351 7.50369 5.35853 5.35861 5.35913 5.35954 5.35973 3.21514 3.21512 3.21534 3.21564 3.21581 1.07171 1.07171 1.07176 1.07186 1.07193 -1.07171 -1.07171 -1.07176 -1.07186 -1.07193 -3.21514 -3.21512 -3.21534 -3.21564 -3.21581 -5.35853 -5.35861 -5.35913 -5.35954 -5.35973 -7.50227 -7.50251 -7.50314 -7.50351 -7.50369 -9.64627 -9.64659 -9.64722 -9.64765 -9.64787 9.64787 9.64765 9.64722 9.64659 9.64627 7.50369 7.50351 7.50314 7.50251 7.50227 5.35973 5.35954 5.35913 5.35861 5.35853 3.21581 3.21564 3.21534 3.21512 3.21514 1.07193 1.07186 1.07176 1.07171 1.07171 -1.07193 -1.07186 -1.07176 -1.07171 -1.07171 -3.21581 -3.21564 -3.21534 -3.21512 -3.21514 -5.35973 -5.35954 -5.35913 -5.35861 -5.35853 -7.50369 -7.50351 -7.50314 -7.50251 -7.50227 -9.64787 -9.64765 -9.64722 -9.64659 -9.64627 
</DataArray>
<DataArray Name="Strain_23" format="ascii" type="Float64">
9.64863 7.50474 5.36071 3.21651 1.07218 9.64833 7.50414 5.36001 3.21599 1.072 9.64711 7.50365 5.35988 3.21592 1.07197 9.6465 7.50307 5.35956 3.21583 1.07195 9.64622 7.50281 5.35934 3.21571 1.07193 9.64622 7.50281 5.35934 3.21571 1.07193 9.6465 7.50307 5.35956 3.21583 1.07195 9.64711 7.50365 5.35988 3.21592 1.07197 9.64833 7.50414 5.36001 3.21599 1.072 9.64863 7.50474 5.36071 3.21651 1.07218 -1.07218 -3.21651 -5.36071 -7.50474 -9.64863 -1.072 -3.21599 -5.36001 -7.50414 -9.64833 -1.07197 -3.21592 -5.35988 -7.50365 -9.64711 -1.07195 -3.21583 -5.35956 -7.50307 -9.6465 -1.07193 -3.21571 -5.35934 -7.50281 -9.64622 -1.07193 -3.21571 -5.35934 -7.50281 -9.64622 -1.07195 -3.21583 -5.35956 -7.50307 -9.6465 -1.07197 -3.21592 -5.35988 -7.50365 -9.64711 -1.072 -3.21599 -5.36001 -7.50414 -9.64833 -1.07218 -3.21651 -5.36071 -7.50474 -9.64863 
</DataArray>
<DataArray Name="Strain_33" format="ascii" type="Float64">
-0.045 -0.045 -0.045 -0.045 -0.045 -0.035 -0.035 -0.035 -0.035 -0.035 -0.025 -0.025 -0.025 -0.025 -0.025 -0.015 -0.015 -0.015 -0.015 -0.015 -0.005 -0.005 -0.005 -0.005 -0.005 0.005 0.005 0.005 0.005 0.005 0.015 0.015 0.015 0.015 0.015 0.025 0.025 0.025 0.025 0.025 0.035 0.035 0.035 0.035 0.035 0.045 0.045 0.045 0.045 0.045 -0.045 -0.045 -0.045 -0.045 -0.045 -0.035 -0.035 -0.035 -0.035 -0.035 -0.025 -0.025 -0.025 -0.025 -0.025 -0.015 -0.015 -0.015 -0.015 -0.015 -0.005 -0.005 -0.005 -0.005 -0.005 0.005 0.005 0.005 0.005 0.005 0.015 0.015 0.015 0.015 0.015 0.025 0.025 0.025 0.025 0.025 0.035 0.035 0.035 0.035 0.035 0.045 0.045 0.045 0.045 0.045 
</DataArray>
<DataArray Name="Stress_11" format="ascii" type="Float64">
1183.64 1184.31 1184.88 1185.18 1185.31 923.617 922.679 922.212 922.066 922.029 659.563 659.532 659.163 658.89 658.768 395.763 395.737 395.627 395.463 395.365 131.917 131.918 131.887 131.842 131.809 -131.917 -131.918 -131.887 -131.842 -131.809 -395.763 -395.737 -395.627 -395.463 -395.365 -659.563 -659.532 -659.163 -658.89 -658.768 -923.617 -922.679 -922.212 -922.066 -922.029 -1183.64 -1184.31 -1184.88 -1185.18 -1185.31 1185.31 1185.18 1184.88 1184.31 1183.64 922.029 922.066 922.212 922.679 923.617 658.768 658.89 659.163 659.532 659.563 395.365 395.463 395.627 395.737 395.763 131.809 131.842 131.887 131.918 131.917 -131.809 -131.842 -131.887 -131.918 -131.917 -395.365 -395.463 -395.627 -395.737 -395.763 -658.768 -658.89 -659.163 -659.532 -659.563 -922.029 -922.066 -922.212 -922.679 -923.617 -1185.31 -1185.18 -1184.88 -1184.31 -1183.64 
</DataArray>
<DataArray Name="Stress_22" format="ascii" type="Float64">
651.325 650.497 650.674 650.739 650.763 507.277 505.778 505.831 505.968 506.033 362.42 361.536 361.223 361.27 361.329 217.459 217.002 216.76 216.712 216.733 72.486 72.3458 72.2589 72.2321 72.2325 -72.486 -72.3458 -72.2589 -72.2321 -72.2325 -217.459 -217.002 -216.76 -216.712 -216.733 -362.42 -361.536 -361.223 -361.27 -361.329 -507.277 -505.778 -505.831 -505.968 -506.033 -651.325 -650.497 -650.674 -650.739 -650.763 650.763 650.739 650.674 650.497 651.325 506.033 505.968 505.831 505.778 507.277 361.329 361.27 361.223 361.536 362.42 216.733 216.712 216.76 217.002 217.459 72.2325 72.2321 72.2589 72.3458 72.486 -72.2325 -72.2321 -72.2589 -72.3458 -72.486 -216.733 -216.712 -216.76 -217.002 -217.459 -361.329 -361.27 -361.223 -361.536 -362.42 -506.033 -505.968 -505.831 -505.778 -507.277 -650.763 -650.739 -650.674 -650.497 -651.325 
</DataArray>
<DataArray Name="Stress_12" format="ascii" type="Float64">
33.0819 25.8139 18.6342 11.2379 3.7538 34.4427 26.2168 18.6043 11.177 3.73079 34.3929 26.7912 18.9729 11.3334 3.77289 34.354 26.9199 19.2375 11.5131 3.83155 34.3365 26.9534 19.3332 11.6079 3.86741 34.3365 26.9534 19.3332 11.6079 3.86741 34.354 26.9199 19.2375 11.5131 3.83155 34.3929 26.7912 18.9729 11.3334 3.77289 34.4427 26.2168 18.6043 11.177 3.73079 33.0819 25.8139 18.6342 11.2379 3.7538 -3.7538 -11.2379 -18.6342 -25.8139 -33.0819 -3.73079 -11.177 -18.6043 -26.2168 -34.4427 -3.77289 -11.3334 -18.9729 -26.7912 -34.3929 -3.83155 -11.5131 -19.2375 -26.9199 -34.354 -3.86741 -11.6079 -19.3332 -26.9534 -34.3365 -3.86741 -11.6079 -19.3332 -26.9534 -34.3365 -3.83155 -11.5131 -19.2375 -26.9199 -34.354 -3.77289 -11.3334 -18.9729 -26.7912 -34.3929 -3.73079 -11.177 -18.6043 -26.2168 -34.4427 -3.7538 -11.2379 -18.6342 -25.8139 -33.0819 
</DataArray>
<DataArray Name="Stress_13" format="ascii" type="Float64">
1093.07 1093.27 1093.42 1093.51 1093.55 850.629 850.571 850.543 850.544 850.551 607.535 607.59 607.591 607.578 607.57 364.527 364.547 364.563 364.565 364.562 121.508 121.516 121.521 121.524 121.524 -121.508 -121.516 -121.521 -121.524 -121.524 -364.527 -364.547 -364.563 -364.565 -364.562 -607.535 -607.59 -607.591 -607.578 -607.57 -850.629 -850.571 -850.543 -850.544 -850.551 -1093.07 -1093.27 -1093.42 -1093.51 -1093.55 1093.55 1093.51 1093.42 1093.27 1093.07 850.551 850.544 850.543 850.571 850.629 607.57 607.578 607.591 607.59 607.535 364.562 364.565 364.563 364.547 364.527 121.524 121.524 121.521 121.516 121.508 -121.524 -121.524 -121.521 -121.516 -121.508 -364.562 -364.565 -364.563 -364.547 -364.527 -607.57 -607.578 -607.591 -607.59 -607.535 -850.551 -850.544 -850.543 -850.571 -850.629 -1093.55 -1093.51 -1093.42 -1093.27 -1093.07 
</DataArray>
<DataArray Name="Stress_23" format="ascii" type="Float64">
564.717 439.244 313.77 188.271 62.7581 564.793 439.238 313.727 188.236 62.7459 564.718 439.248 313.745 188.243 62.747 564.68 439.223 313.744 188.25 62.7503 564.662 439.21 313.738 188.25 62.7511 564.662 439.21 313.738 188.25 62.7511 564.68 439.223 313.744 188.25 62.7503 564.718 439.248 313.745 188.243 62.747 564.793 439.238 313.727 188.236 62.7459 564.717 439.244 313.77 188.271 62.7581 -62.7581 -188.271 -313.77 -439.244 -564.717 -62.7459 -188.236 -313.727 -439.238 -564.793 -62.747 -188.243 -313.745 -439.248 -564.718 -62.7503 -188.25 -313.744 -439.223 -564.68 -62.7511 -188.25 -313.738 -439.21 -564.662 -62.7511 -188.25 -313.738 -439.21 -564.662 -62.7503 -188.25 -313.744 -439.223 -564.68 -62.747 -188.243 -313.745 -439.248 -564.718 -62.7459 -188.236 -313.727 -439.238 -564.793 -62.7581 -188.271 -313.77 -439.244 -564.717 
</DataArray>
<DataArray Name="Stress_33" format="ascii" type="Float64">
1511.79 1512.03 1512.38 1512.57 1512.65 1177.29 1176.7 1176.54 1176.52 1176.53 840.835 840.722 840.559 840.475 840.443 504.516 504.446 504.386 504.331 504.304 168.169 168.153 168.133 168.118 168.108 -168.169 -168.153 -168.133 -168.118 -168.108 -504.516 -504.446 -504.386 -504.331 -504.304 -840.835 -840.722 -840.559 -840.475 -840.443 -1177.29 -1176.7 -1176.54 -1176.52 -1176.53 -1511.79 -1512.03 -1512.38 -1512.57 -1512.65 1512.65 1512.57 1512.38 1512.03 1511.79 1176.53 1176.52 1176.54 1176.7 1177.29 840.443 840.475 840.559 840.722 840.835 504.304 504.331 504.386 504.446 504.516 168.108 168.118 168.133 168.153 168.169 -168.108 -168.118 -168.133 -168.153 -168.169 -504.304 -504.331 -504.386 -504.446 -504.516 -840.443 -840.475 -840.559 -840.722 -840.835 -1176.53 -1176.52 -1176.54 -1176.7 -1177.29 -1512.65 -1512.57 -1512.38 -1512.03 -1511.79 
</DataArray>
</CellData>
<Points>
<DataArray NumberOfComponents="3" format="ascii" type="Float64">
-0.05 -0.05 0 -0.05 0 0 -0.05 -0.04 0 -0.05 -0.03 0 -0.05 -0.02 0 -0.05 -0.01 0 0 0 0 -0.04 0 0 -0.03 0 0 -0.02 0 0 -0.01 0 0 0 -0.05 0 0 -0.01 0 0 -0.02 0 0 -0.03 0 0 -0.04 0 -0.01 -0.05 0 -0.02 -0.05 0 -0.03 -0.05 0 -0.04 -0.05 0 -0.04 -0.04 0 -0.04 -0.03 0 -0.04 -0.02 0 -0.04 -0.01 0 -0.03 -0.04 0 -0.03 -0.03 0 -0.03 -0.02 0 -0.03 -0.01 0 -0.02 -0.04 0 -0.02 -0.03 0 -0.02 -0.02 0 -0.02 -0.01 0 -0.01 -0.04 0 -0.01 -0.03 0 -0.01 -0.02 0 -0.01 -0.01 0 -0.05 0.05 0 -0.05 0.01 0 -0.05 0.02 0 -0.05 0.03 0 -0.05 0.04 0 0 0.05 0 -0.04 0.05 0 -0.03 0.05 0 -0.02 0.05 0 -0.01 0.05 0 0 0.04 0 0 0.03 0 0 0.02 0 0 0.01 0 -0.04 0.01 0 -0.04 0.02 0 -0.04 0.03 0 -0.04 0.04 0 -0.03 0.01 0 -0.03 0.02 0 -0.03 0.03 0 -0.03 0.04 0 -0.02 0.01 0 -0.02 0.02 0 -0.02 0.03 0 -0.02 0.04 0 -0.01 0.01 0 -0.01 0.02 0 -0.01 0.03 0 -0.01 0.04 0 0.05 0 0 0.01 0 0 0.02 0 0 0.03 0 0 0.04 0 0 0.05 -0.05 0 0.05 -0.01 0 0.05 -0.02 0 0.05 -0.03 0 0.05 -0.04 0 0.04 -0.05 0 0.03 -0.05 0 0.02 -0.05 0 0.01 -0.05 0 0.01 -0.04 0 0.01 -0.03 0 0.01 -0.02 0 0.01 -0.01 0 0.02 -0.04 0 0.02 -0.03 0 0.02 -0.02 0 0.02 -0.01 0 0.03 -0.04 0 0.03 -0.03 0 0.03 -0.02 0 0.03 -0.01 0 0.04 -0.04 0 0.04 -0.03 0 0.04 -0.02 0 0.04 -0.01 0 0.05 0.05 0 0.01 0.05 0 0.02 0.05 0 0.03 0.05 0 0.04 0.05 0 0.05 0.04 0 0.05 0.03 0 0.05 0.02 0 0.05 0.01 0 0.01 0.01 0 0.01 0.02 0 0.01 0.03 0 0.01 0.04 0 0.02 0.01 0 0.02 0.02 0 0.02 0.03 0 0.02 0.04 0 0.03 0.01 0 0.03 0.02 0 0.03 0.03 0 0.03 0.04 0 0.04 0.01 0 0.04 0.02 0 0.04 0.03 0 0.04 0.04 0 
</DataArray>
</Points>
<Cells>
<DataArray Name="connectivity" format="ascii" type="Int64">
0 19 20 2 19 18 24 20 18 17 28 24 17 16 32 28 16 11 15 32 2 20 21 3 20 24 25 21 24 28 29 25 28 32 33 29 32 15 14 33 3 21 22 4 21 25 26 22 25 29 30 26 29 33 34 30 33 14 13 34 4 22 23 5 22 26 27 23 26 30 31 27 30 34 35 31 34 13 12 35 5 23 7 1 23 27 8 7 27 31 9 8 31 35 10 9 35 12 6 10 1 7 50 37 7 8 54 50 8 9 58 54 9 10 62 58 10 6 49 62 37 50 51 38 50 54 55 51 54 58 59 55 58 62 63 59 62 49 48 63 38 51 52 39 51 55 56 52 55 59 60 56 59 63 64 60 63 48 47 64 39 52 53 40 52 56 57 53 56 60 61 57 60 64 65 61 64 47 46 65 40 53 42 36 53 57 43 42 57 61 44 43 61 65 45 44 65 46 41 45 11 79 80 15 79 78 84 80 78 77 88 84 77 76 92 88 76 71 75 92 15 80 81 14 80 84 85 81 84 88 89 85 88 92 93 89 92 75 74 93 14 81 82 13 81 85 86 82 85 89 90 86 89 93 94 90 93 74 73 94 13 82 83 12 82 86 87 83 86 90 91 87 90 94 95 91 94 73 72 95 12 83 67 6 83 87 68 67 87 91 69 68 91 95 70 69 95 72 66 70 6 67 105 49 67 68 109 105 68 69 113 109 69 70 117 113 70 66 104 117 49 105 106 48 105 109 110 106 109 113 114 110 113 117 118 114 117 104 103 118 48 106 107 47 106 110 111 107 110 114 115 111 114 118 119 115 118 103 102 119 47 107 108 46 107 111 112 108 111 115 116 112 115 119 120 116 119 102 101 120 46 108 97 41 108 112 98 97 112 116 99 98 116 120 100 99 120 101 96 100 
</DataArray>
<DataArray Name="offsets" format="ascii" type="Int64">
4 8 12 16 20 24 28 32 36 40 44 48 52 56 60 64 68 72 76 80 84 88 92 96 100 104 108 112 116 120 124 128 132 136 140 144 148 152 156 160 164 168 172 176 180 184 188 192 196 200 204 208 212 216 220 224 228 232 236 240 244 248 252 256 260 264 268 272 276 280 284 288 292 296 300 304 308 312 316 320 324 328 332 336 340 344 348 352 356 360 364 368 372 376 380 384 388 392 396 400 
</DataArray>
<DataArray Name="types" format="ascii" type="Int8">
9 9 9 9 9 9 9 9 9 9 9 9 9 9 9 9 9 9 9 9 9 9 9 9 9 9 9 9 9 9 9 9 9 9 9 9 9 9 9 9 9 9 9 9 9 9 9 9 9 9 9 9 9 9 9 9 9 9 9 9 9 9 9 9 9 9 9 9 9 9 9 9 9 9 9 9 9 9 9 9 9 9 9 9 9 9 9 9 9 9 9 9 9 9 9 9 9 9 9 9 
</DataArray>
</Cells>
</Piece>
</UnstructuredGrid>
</VTKFile>
