<?xml version="1.0"?>
<VTKFile byte_order="LittleEndian" type="UnstructuredGrid" version="0.1">
<UnstructuredGrid>
<Piece NumberOfCells="100" NumberOfPoints="121">
<PointData>
<DataArray Name="Warping_X" format="ascii" type="Float64">
0.157308 9.3529e-17 0.101541 0.0615599 0.0337187 0.0145803 3.98998e-17 9.46189e-17 9.0103e-17 7.27869e-17 5.51738e-17 5.10412e-18 4.21601e-17 4.05587e-17 3.13571e-17 2.58313e-17 0.0535024 0.102286 0.1413 0.164181 0.113327 0.0717723 0.0409004 0.0182594 0.102962 0.0680387 0.0399848 0.018219 0.0765249 0.0522401 0.0314508 0.0145402 0.0405195 0.0281489 0.0172169 0.00803461 -0.157308 -0.0145803 -0.0337187 -0.0615599 -0.101541 -3.71336e-17 -0.164181 -0.1413 -0.102286 -0.0535024 -2.4505e-17 4.32461e-19 2.02432e-17 3.62833e-17 -0.0182594 -0.0409004 -0.0717723 -0.113327 -0.018219 -0.0399848 -0.0680387 -0.102962 -0.0145402 -0.0314508 -0.0522401 -0.0765249 -0.00803461 -0.0172169 -0.0281489 -0.0405195 9.70622e-19 3.10253e-17 1.1378e-17 -1.52223e-17 6.10871e-18 -0.157308 -0.0145803 -0.0337187 -0.0615599 -0.101541 -0.164181 -0.1413 -0.102286 -0.0535024 -0.0405195 -0.0281489 -0.0172169 -0.00803461 -0.0765249 -0.0522401 -0.0314508 -0.0145402 -0.102962 -0.0680387 -0.0399848 -0.018219 -0.113327 -0.0717723 -0.0409004 -0.0182594 0.157308 0.0535024 0.102286 0.1413 0.164181 0.101541 0.0615599 0.0337187 0.0145803 0.00803461 0.0172169 0.0281489 0.0405195 0.0145402 0.0314508 0.0522401 0.0765249 0.018219 0.0399848 0.0680387 0.102962 0.0182594 0.0409004 0.0717723 0.113327 
</DataArray>
<DataArray Name="Warping_Y" format="ascii" type="Float64">
-0.154052 -0.0828409 -0.131261 -0.112329 -0.0967264 -0.0864336 0.12086 -0.017942 0.0394576 0.0837302 0.111447 0.0104492 0.117004 0.105028 0.0839194 0.0526015 0.00384896 -0.0157413 -0.047944 -0.0925459 -0.0647778 -0.0442925 -0.0297608 -0.0209202 -0.0132226 0.0111154 0.0272067 0.0364398 0.0231931 0.0513818 0.0699278 0.0803663 0.0452164 0.0757489 0.0961869 0.107733 -0.154052 -0.0864336 -0.0967264 -0.112329 -0.131261 0.0104492 -0.0925459 -0.047944 -0.0157413 0.00384896 0.0526015 0.0839194 0.105028 0.117004 -0.0209202 -0.0297608 -0.0442925 -0.0647778 0.0364398 0.0272067 0.0111154 -0.0132226 0.0803663 0.0699278 0.0513818 0.0231931 0.107733 0.0961869 0.0757489 0.0452164 -0.0828409 0.111447 0.0837302 0.0394576 -0.017942 -0.154052 -0.0864336 -0.0967264 -0.112329 -0.131261 -0.0925459 -0.047944 -0.0157413 0.00384896 0.0452164 0.0757489 0.0961869 0.107733 0.0231931 0.0513818 0.0699278 0.0803663 -0.0132226 0.0111154 0.0272067 0.0364398 -0.0647778 -0.0442925 -0.0297608 -0.0209202 -0.154052 0.00384896 -0.0157413 -0.047944 -0.0925459 -0.131261 -0.112329 -0.0967264 -0.0864336 0.107733 0.0961869 0.0757489 0.0452164 0.0803663 0.0699278 0.0513818 0.0231931 0.0364398 0.0272067 0.0111154 -0.0132226 -0.0209202 -0.0297608 -0.0442925 -0.0647778 
</DataArray>
<DataArray Name="Warping_Z" format="ascii" type="Float64">
0 0 0 0 0 0 0 0 0 0 0 0 0 0 0 0 0 0 0 0 0 0 0 0 0 0 0 0 0 0 0 0 0 0 0 0 0 0 0 0 0 0 0 0 0 0 0 0 0 0 0 0 0 0 0 0 0 0 0 0 0 0 0 0 0 0 0 0 0 0 0 0 0 0 0 0 0 0 0 0 0 0 0 0 0 0 0 0 0 0 0 0 0 0 0 0 0 0 0 0 0 0 0 0 0 0 0 0 0 0 0 0 0 0 0 0 0 0 0 0 0 
</DataArray>
</PointData>
<CellData>
<DataArray Name="MaterialId" format="ascii" type="Float64">
3 3 3 3 3 3 3 3 3 3 3 3 3 3 3 3 3 3 3 3 3 3 3 3 3 3 3 3 3 3 3 3 3 3 3 3 3 3 3 3 3 3 3 3 3 3 3 3 3 3 3 3 3 3 3 3 3 3 3 3 3 3 3 3 3 3 3 3 3 3 3 3 3 3 3 3 3 3 3 3 3 3 3 3 3 3 3 3 3 3 3 3 3 3 3 3 3 3 3 3 
</DataArray>
<DataArray Name="FiberAngle" format="ascii" type="Float64">
22.5 22.5 22.5 22.5 22.5 22.5 22.5 22.5 22.5 22.5 22.5 22.5 22.5 22.5 22.5 22.5 22.5 22.5 22.5 22.5 22.5 22.5 22.5 22.5 22.5 22.5 22.5 22.5 22.5 22.5 22.5 22.5 22.5 22.5 22.5 22.5 22.5 22.5 22.5 22.5 22.5 22.5 22.5 22.5 22.5 22.5 22.5 22.5 22.5 22.5 22.5 22.5 22.5 22.5 22.5 22.5 22.5 22.5 22.5 22.5 22.5 22.5 22.5 22.5 22.5 22.5 22.5 22.5 22.5 22.5 22.5 22.5 22.5 22.5 22.5 22.5 22.5 22.5 22.5 22.5 22.5 22.5 22.5 22.5 22.5 22.5 22.5 22.5 22.5 22.5 22.5 22.5 22.5 22.5 22.5 22.5 22.5 22.5 22.5 22.5 
</DataArray>
<DataArray Name="Strain_11" format="ascii" type="Float64">
0.932955 -1.66228 -3.27259 -4.23944 -4.70109 1.09992 -0.704908 -2.11179 -3.00483 -3.43342 0.869707 -0.232456 -1.21663 -1.91625 -2.26829 0.54304 -0.0477975 -0.61064 -1.03698 -1.26258 0.183957 -0.00202115 -0.18394 -0.325281 -0.40173 -0.183957 0.00202115 0.18394 0.325281 0.40173 -0.54304 0.0477975 0.61064 1.03698 1.26258 -0.869707 0.232456 1.21663 1.91625 2.26829 -1.09992 0.704908 2.11179 3.00483 3.43342 -0.932955 1.66228 3.27259 4.23944 4.70109 -4.70109 -4.23944 -3.27259 -1.66228 0.932955 -3.43342 -3.00483 -2.11179 -0.704908 1.09992 -2.26829 -1.91625 -1.21663 -0.232456 0.869707 -1.26258 -1.03698 -0.61064 -0.0477975 0.54304 -0.40173 -0.325281 -0.18394 -0.00202115 0.183957 0.40173 0.325281 0.18394 0.00202115 -0.183957 1.26258 1.03698 0.61064 0.0477975 -0.54304 2.26829 1.91625 1.21663 0.232456 -0.869707 3.43342 3.00483 2.11179 0.704908 -1.09992 4.70109 4.23944 3.27259 1.66228 -0.932955 
</DataArray>
<DataArray Name="Strain_22" format="ascii" type="Float64">
2.52791 3.12448 3.68279 4.01509 4.17599 1.97087 2.24117 2.62634 2.93606 3.09252 1.50673 1.53115 1.73187 1.9492 2.07734 0.956675 0.903685 0.983578 1.09923 1.17611 0.328542 0.299801 0.319086 0.353909 0.378514 -0.328542 -0.299801 -0.319086 -0.353909 -0.378514 -0.956675 -0.903685 -0.983578 -1.09923 -1.17611 -1.50673 -1.53115 -1.73187 -1.9492 -2.07734 -1.97087 -2.24117 -2.62634 -2.93606 -3.09252 -2.52791 -3.12448 -3.68279 -4.01509 -4.17599 4.17599 4.01509 3.68279 3.12448 2.52791 3.09252 2.93606 2.62634 2.24117 1.97087 2.07734 1.9492 1.73187 1.53115 1.50673 1.17611 1.09923 0.983578 0.903685 0.956675 0.378514 0.353909 0.319086 0.299801 0.328542 -0.378514 -0.353909 -0.319086 -0.299801 -0.328542 -1.17611 -1.09923 -0.983578 -0.903685 -0.956675 -2.07734 -1.9492 -1.73187 -1.53115 -1.50673 -3.09252 -2.93606 -2.62634 -2.24117 -1.97087 -4.17599 -4.01509 -3.68279 -3.12448 -2.52791 
</DataArray>
<DataArray Name="Strain_12" format="ascii" type="Float64">
1.06835 0.348207 0.225963 0.143488 0.050125 2.64927 1.52427 0.873699 0.486751 0.159254 3.81447 2.67248 1.70721 0.945242 0.303989 4.53499 3.49604 2.39856 1.37665 0.446511 4.87863 3.91406 2.77199 1.62545 0.532482 4.87863 3.91406 2.77199 1.62545 0.532482 4.53499 3.49604 2.39856 1.37665 0.446511 3.81447 2.67248 1.70721 0.945242 0.303989 2.64927 1.52427 0.873699 0.486751 0.159254 1.06835 0.348207 0.225963 0.143488 0.050125 -0.050125 -0.143488 -0.225963 -0.348207 -1.06835 -0.159254 -0.486751 -0.873699 -1.52427 -2.64927 -0.303989 -0.945242 -1.70721 -2.67248 -3.81447 -0.446511 -1.37665 -2.39856 -3.49604 -4.53499 -0.532482 -1.62545 -2.77199 -3.91406 -4.87863 -0.532482 -1.62545 -2.77199 -3.91406 -4.87863 -0.446511 -1.37665 -2.39856 -3.49604 -4.53499 -0.303989 -0.945242 -1.70721 -2.67248 -3.81447 -0.159254 -0.486751 -0.873699 -1.52427 -2.64927 -0.050125 -0.143488 -0.225963 -0.348207 -1.06835 
</DataArray>
<DataArray Name="Strain_13" format="ascii" type="Float64">
-28.1194 -12.3902 -2.56114 3.34844 6.14461 -24.958 -14.976 -7.41887 -2.57639 -0.22561 -18.486 -12.6401 -7.83197 -4.51666 -2.84956 -11.3178 -8.19785 -5.58295 -3.7229 -2.76386 -3.80441 -2.82563 -1.9972 -1.40252 -1.09317 3.80441 2.82563 1.9972 1.40252 1.09317 11.3178 8.19785 5.58295 3.7229 2.76386 18.486 12.6401 7.83197 4.51666 2.84956 24.958 14.976 7.41887 2.57639 0.22561 28.1194 12.3902 2.56114 -3.34844 -6.14461 6.14461 3.34844 -2.56114 -12.3902 -28.1194 -0.22561 -2.57639 -7.41887 -14.976 -24.958 -2.84956 -4.51666 -7.83197 -12.6401 -18.486 -2.76386 -3.7229 -5.58295 -8.19785 -11.3178 -1.09317 -1.40252 -1.9972 -2.82563 -3.80441 1.09317 1.40252 1.9972 2.82563 3.80441 2.76386 3.7229 5.58295 8.19785 11.3178 2.84956 4.51666 7.83197 12.6401 18.486 0.22561 2.57639 7.41887 14.976 24.958 -6.14461 -3.34844 2.56114 12.3902 28.1194 
</DataArray>
<DataArray Name="Strain_23" format="ascii" type="Float64">
30.0755 27.218 20.4277 12.5549 4.22811 6.0604 9.53339 8.92013 6.05039 2.12211 -7.42961 -2.05469 0.521421 1.07778 0.481835 -15.0601 -8.78449 -4.62935 -2.10293 -0.587532 -18.5314 -11.8814 -7.03856 -3.61885 -1.10317 -18.5314 -11.8814 -7.03856 -3.61885 -1.10317 -15.0601 -8.78449 -4.62935 -2.10293 -0.587532 -7.42961 -2.05469 0.521421 1.07778 0.481835 6.0604 9.53339 8.92013 6.05039 2.12211 30.0755 27.218 20.4277 12.5549 4.22811 -4.22811 -12.5549 -20.4277 -27.218 -30.0755 -2.12211 -6.05039 -8.92013 -9.53339 -6.0604 -0.481835 -1.07778 -0.521421 2.05469 7.42961 0.587532 2.10293 4.62935 8.78449 15.0601 1.10317 3.61885 7.03856 11.8814 18.5314 1.10317 3.61885 7.03856 11.8814 18.5314 0.587532 2.10293 4.62935 8.78449 15.0601 -0.481835 -1.07778 -0.521421 2.05469 7.42961 -2.12211 -6.05039 -8.92013 -9.53339 -6.0604 -4.22811 -12.5549 -20.4277 -27.218 -30.0755 
</DataArray>
<DataArray Name="Strain_33" format="ascii" type="Float64">
0 0 0 0 0 0 0 0 0 0 0 0 0 0 0 0 0 0 0 0 0 0 0 0 0 0 0 0 0 0 0 0 0 0 0 0 0 0 0 0 0 0 0 0 0 0 0 0 0 0 0 0 0 0 0 0 0 0 0 0 0 0 0 0 0 0 0 0 0 0 0 0 0 0 0 0 0 0 0 0 0 0 0 0 0 0 0 0 0 0 0 0 0 0 0 0 0 0 0 0 
</DataArray>
<DataArray Name="Stress_11" format="ascii" type="Float64">
-450.266 -426.116 -402.903 -388.874 -382.709 -370.107 -381.245 -389.189 -390.867 -390.76 -264.59 -282.277 -301.678 -315.318 -321.553 -159.277 -171.398 -186.937 -199.668 -206.461 -53.0935 -57.4086 -63.0596 -67.9287 -70.6551 53.0935 57.4086 63.0596 67.9287 70.6551 159.277 171.398 186.937 199.668 206.461 264.59 282.277 301.678 315.318 321.553 370.107 381.245 389.189 390.867 390.76 450.266 426.116 402.903 388.874 382.709 -382.709 -388.874 -402.903 -426.116 -450.266 -390.76 -390.867 -389.189 -381.245 -370.107 -321.553 -315.318 -301.678 -282.277 -264.59 -206.461 -199.668 -186.937 -171.398 -159.277 -70.6551 -67.9287 -63.0596 -57.4086 -53.0935 70.6551 67.9287 63.0596 57.4086 53.0935 206.461 199.668 186.937 171.398 159.277 321.553 315.318 301.678 282.277 264.59 390.76 390.867 389.189 381.245 370.107 382.709 388.874 402.903 426.116 450.266 
</DataArray>
<DataArray Name="Stress_22" format="ascii" type="Float64">
401.896 367.532 370.712 372.228 373.278 330.537 289.061 279.847 282.464 284.704 252.881 209.512 194.743 194.145 196.301 159.663 127.794 114.973 112.635 113.483 54.6292 43.0258 38.0502 36.8456 36.9653 -54.6292 -43.0258 -38.0502 -36.8456 -36.9653 -159.663 -127.794 -114.973 -112.635 -113.483 -252.881 -209.512 -194.743 -194.145 -196.301 -330.537 -289.061 -279.847 -282.464 -284.704 -401.896 -367.532 -370.712 -372.228 -373.278 373.278 372.228 370.712 367.532 401.896 284.704 282.464 279.847 289.061 330.537 196.301 194.145 194.743 209.512 252.881 113.483 112.635 114.973 127.794 159.663 36.9653 36.8456 38.0502 43.0258 54.6292 -36.9653 -36.8456 -38.0502 -43.0258 -54.6292 -113.483 -112.635 -114.973 -127.794 -159.663 -196.301 -194.145 -194.743 -209.512 -252.881 -284.704 -282.464 -279.847 -289.061 -330.537 -373.278 -372.228 -370.712 -367.532 -401.896 
</DataArray>
<DataArray Name="Stress_12" format="ascii" type="Float64">
161.315 114.151 83.8519 51.7728 17.5283 157.77 112.152 76.5019 46.4417 15.6987 170.042 130.273 89.7041 52.4569 17.3482 180.145 148.864 107.073 63.4135 20.9022 185.558 159.428 117.774 70.8582 23.5036 185.558 159.428 117.774 70.8582 23.5036 180.145 148.864 107.073 63.4135 20.9022 170.042 130.273 89.7041 52.4569 17.3482 157.77 112.152 76.5019 46.4417 15.6987 161.315 114.151 83.8519 51.7728 17.5283 -17.5283 -51.7728 -83.8519 -114.151 -161.315 -15.6987 -46.4417 -76.5019 -112.152 -157.77 -17.3482 -52.4569 -89.7041 -130.273 -170.042 -20.9022 -63.4135 -107.073 -148.864 -180.145 -23.5036 -70.8582 -117.774 -159.428 -185.558 -23.5036 -70.8582 -117.774 -159.428 -185.558 -20.9022 -63.4135 -107.073 -148.864 -180.145 -17.3482 -52.4569 -89.7041 -130.273 -170.042 -15.6987 -46.4417 -76.5019 -112.152 -157.77 -17.5283 -51.7728 -83.8519 -114.151 -161.315 
</DataArray>
<DataArray Name="Stress_13" format="ascii" type="Float64">
-2791.59 -1282.42 -339.34 227.712 495.912 -2470.86 -1516.75 -795.625 -333.428 -108.946 -1828.88 -1271 -814.266 -499.949 -341.927 -1119.5 -821.732 -573.957 -398.41 -308.061 -376.288 -282.872 -204.452 -148.445 -119.389 376.288 282.872 204.452 148.445 119.389 1119.5 821.732 573.957 398.41 308.061 1828.88 1271 814.266 499.949 341.927 2470.86 1516.75 795.625 333.428 108.946 2791.59 1282.42 339.34 -227.712 -495.912 495.912 227.712 -339.34 -1282.42 -2791.59 -108.946 -333.428 -795.625 -1516.75 -2470.86 -341.927 -499.949 -814.266 -1271 -1828.88 -308.061 -398.41 -573.957 -821.732 -1119.5 -119.389 -148.445 -204.452 -282.872 -376.288 119.389 148.445 204.452 282.872 376.288 308.061 398.41 573.957 821.732 1119.5 341.927 499.949 814.266 1271 1828.88 108.946 333.428 795.625 1516.75 2470.86 -495.912 -227.712 339.34 1282.42 2791.59 
</DataArray>
<DataArray Name="Stress_23" format="ascii" type="Float64">
1764.26 1594.45 1196.55 735.414 247.672 364.116 563.431 525.234 355.884 124.782 -421.41 -110.824 36.5575 66.4304 29.2792 -865.515 -501.845 -262.501 -118.229 -32.8128 -1067.5 -681.645 -402.206 -206.084 -62.6918 -1067.5 -681.645 -402.206 -206.084 -62.6918 -865.515 -501.845 -262.501 -118.229 -32.8128 -421.41 -110.824 36.5575 66.4304 29.2792 364.116 563.431 525.234 355.884 124.782 1764.26 1594.45 1196.55 735.414 247.672 -247.672 -735.414 -1196.55 -1594.45 -1764.26 -124.782 -355.884 -525.234 -563.431 -364.116 -29.2792 -66.4304 -36.5575 110.824 421.41 32.8128 118.229 262.501 501.845 865.515 62.6918 206.084 402.206 681.645 1067.5 62.6918 206.084 402.206 681.645 1067.5 32.8128 118.229 262.501 501.845 865.515 -29.2792 -66.4304 -36.5575 110.824 421.41 -124.782 -355.884 -525.234 -563.431 -364.116 -247.672 -735.414 -1196.55 -1594.45 -1764.26 
</DataArray>
<DataArray Name="Stress_33" format="ascii" type="Float64">
-2771.07 -1304.67 -381.536 173.469 435.893 -2448.86 -1533.03 -836.76 -387.977 -169.567 -1808.39 -1279.57 -844.377 -543.267 -391.264 -1105.3 -825.385 -591.62 -425.304 -339.41 -371.216 -283.835 -210.227 -157.483 -130.046 371.216 283.835 210.227 157.483 130.046 1105.3 825.385 591.62 425.304 339.41 1808.39 1279.57 844.377 543.267 391.264 2448.86 1533.03 836.76 387.977 169.567 2771.07 1304.67 381.536 -173.469 -435.893 435.893 173.469 -381.536 -1304.67 -2771.07 -169.567 -387.977 -836.76 -1533.03 -2448.86 -391.264 -543.267 -844.377 -1279.57 -1808.39 -339.41 -425.304 -591.62 -825.385 -1105.3 -130.046 -157.483 -210.227 -283.835 -371.216 130.046 157.483 210.227 283.835 371.216 339.41 425.304 591.62 825.385 1105.3 391.264 543.267 844.377 1279.57 1808.39 169.567 387.977 836.76 1533.03 2448.86 -435.893 -173.469 381.536 1304.67 2771.07 
</DataArray>
</CellData>
<Points>
<DataArray NumberOfComponents="3" format="ascii" type="Float64">
-0.05 -0.05 0 -0.05 0 0 -0.05 -0.04 0 -0.05 -0.03 0 -0.05 -0.02 0 -0.05 -0.01 0 0 0 0 -0.04 0 0 -0.03 0 0 -0.02 0 0 -0.01 0 0 0 -0.05 0 0 -0.01 0 0 -0.02 0 0 -0.03 0 0 -0.04 0 -0.01 -0.05 0 -0.02 -0.05 0 -0.03 -0.05 0 -0.04 -0.05 0 -0.04 -0.04 0 -0.04 -0.03 0 -0.04 -0.02 0 -0.04 -0.01 0 -0.03 -0.04 0 -0.03 -0.03 0 -0.03 -0.02 0 -0.03 -0.01 0 -0.02 -0.04 0 -0.02 -0.03 0 -0.02 -0.02 0 -0.02 -0.01 0 -0.01 -0.04 0 -0.01 -0.03 0 -0.01 -0.02 0 -0.01 -0.01 0 -0.05 0.05 0 -0.05 0.01 0 -0.05 0.02 0 -0.05 0.03 0 -0.05 0.04 0 0 0.05 0 -0.04 0.05 0 -0.03 0.05 0 -0.02 0.05 0 -0.01 0.05 0 0 0.04 0 0 0.03 0 0 0.02 0 0 0.01 0 -0.04 0.01 0 -0.04 0.02 0 -0.04 0.03 0 -0.04 0.04 0 -0.03 0.01 0 -0.03 0.02 0 -0.03 0.03 0 -0.03 0.04 0 -0.02 0.01 0 -0.02 0.02 0 -0.02 0.03 0 -0.02 0.04 0 -0.01 0.01 0 -0.01 0.02 0 -0.01 0.03 0 -0.01 0.04 0 0.05 0 0 0.01 0 0 0.02 0 0 0.03 0 0 0.04 0 0 0.05 -0.05 0 0.05 -0.01 0 0.05 -0.02 0 0.05 -0.03 0 0.05 -0.04 0 0.04 -0.05 0 0.03 -0.05 0 0.02 -0.05 0 0.01 -0.05 0 0.01 -0.04 0 0.01 -0.03 0 0.01 -0.02 0 0.01 -0.01 0 0.02 -0.04 0 0.02 -0.03 0 0.02 -0.02 0 0.02 -0.01 0 0.03 -0.04 0 0.03 -0.03 0 0.03 -0.02 0 0.03 -0.01 0 0.04 -0.04 0 0.04 -0.03 0 0.04 -0.02 0 0.04 -0.01 0 0.05 0.05 0 0.01 0.05 0 0.02 0.05 0 0.03 0.05 0 0.04 0.05 0 0.05 0.04 0 0.05 0.03 0 0.05 0.02 0 0.05 0.01 0 0.01 0.01 0 0.01 0.02 0 0.01 0.03 0 0.01 0.04 0 0.02 0.01 0 0.02 0.02 0 0.02 0.03 0 0.02 0.04 0 0.03 0.01 0 0.03 0.02 0 0.03 0.03 0 0.03 0.04 0 0.04 0.01 0 0.04 0.02 0 0.04 0.03 0 0.04 0.04 0 
</DataArray>
</Points>
<Cells>
<DataArray Name="connectivity" format="ascii" type="Int64">
0 19 20 2 19 18 24 20 18 17 28 24 17 16 32 28 16 11 15 32 2 20 21 3 20 24 25 21 24 28 29 25 28 32 33 29 32 15 14 33 3 21 22 4 21 25 26 22 25 29 30 26 29 33 34 30 33 14 13 34 4 22 23 5 22 26 27 23 26 30 31 27 30 34 35 31 34 13 12 35 5 23 7 1 23 27 8 7 27 31 9 8 31 35 10 9 35 12 6 10 1 7 50 37 7 8 54 50 8 9 58 54 9 10 62 58 10 6 49 62 37 50 51 38 50 54 55 51 54 58 59 55 58 62 63 59 62 49 48 63 38 51 52 39 51 55 56 52 55 59 60 56 59 63 64 60 63 48 47 64 39 52 53 40 52 56 57 53 56 60 61 57 60 64 65 61 64 47 46 65 40 53 42 36 53 57 43 42 57 61 44 43 61 65 45 44 65 46 41 45 11 79 80 15 79 78 84 80 78 77 88 84 77 76 92 88 76 71 75 92 15 80 81 14 80 84 85 81 84 88 89 85 88 92 93 89 92 75 74 93 14 81 82 13 81 85 86 82 85 89 90 86 89 93 94 90 93 74 73 94 13 82 83 12 82 86 87 83 86 90 91 87 90 94 95 91 94 73 72 95 12 83 67 6 83 87 68 67 87 91 69 68 91 95 70 69 95 72 66 70 6 67 105 49 67 68 109 105 68 69 113 109 69 70 117 113 70 66 104 117 49 105 106 48 105 109 110 106 109 113 114 110 113 117 118 114 117 104 103 118 48 106 107 47 106 110 111 107 110 114 115 111 114 118 119 115 118 103 102 119 47 107 108 46 107 111 112 108 111 115 116 112 115 119 120 116 119 102 101 120 46 108 97 41 108 112 98 97 112 116 99 98 116 120 100 99 120 101 96 100 
</DataArray>
<DataArray Name="offsets" format="ascii" type="Int64">
4 8 12 16 20 24 28 32 36 40 44 48 52 56 60 64 68 72 76 80 84 88 92 96 100 104 108 112 116 120 124 128 132 136 140 144 148 152 156 160 164 168 172 176 180 184 188 192 196 200 204 208 212 216 220 224 228 232 236 240 244 248 252 256 260 264 268 272 276 280 284 288 292 296 300 304 308 312 316 320 324 328 332 336 340 344 348 352 356 360 364 368 372 376 380 384 388 392 396 400 
</DataArray>
<DataArray Name="types" format="ascii" type="Int8">
9 9 9 9 9 9 9 9 9 9 9 9 9 9 9 9 9 9 9 9 9 9 9 9 9 9 9 9 9 9 9 9 9 9 9 9 9 9 9 9 9 9 9 9 9 9 9 9 9 9 9 9 9 9 9 9 9 9 9 9 9 9 9 9 9 9 9 9 9 9 9 9 9 9 9 9 9 9 9 9 9 9 9 9 9 9 9 9 9 9 9 9 9 9 9 9 9 9 9 9 
</DataArray>
</Cells>
</Piece>
</UnstructuredGrid>
</VTKFile>
