<?xml version="1.0"?>
<VTKFile byte_order="LittleEndian" type="UnstructuredGrid" version="0.1">
<UnstructuredGrid>
<Piece NumberOfCells="100" NumberOfPoints="121">
<PointData>
<DataArray Name="Warping_X" format="ascii" type="Float64">
0.00465356 0.00379234 0.00430632 0.00408052 0.00392062 0.00382443 -1.88053e-18 0.00508547 0.00501694 0.00392001 0.00213323 3.79756e-18 -1.99084e-18 -1.00913e-18 1.3788e-18 3.18022e-18 0.00232816 0.00431269 0.00560742 0.00585642 0.00557742 0.00536311 0.00520948 0.00511655 0.0054298 0.00525492 0.00512387 0.0050438 0.00420821 0.00409283 0.00399864 0.00393984 0.00227979 0.00222319 0.00217484 0.00214378 0.00465356 0.00382443 0.00392062 0.00408052 0.00430632 8.19215e-19 0.00585642 0.00560742 0.00431269 0.00232816 2.19777e-18 1.43628e-18 -1.79343e-20 -6.49635e-19 0.00511655 0.00520948 0.00536311 0.00557742 0.0050438 0.00512387 0.00525492 0.0054298 0.00393984 0.00399864 0.00409283 0.00420821 0.00214378 0.00217484 0.00222319 0.00227979 -0.00379234 -0.00213323 -0.00392001 -0.00501694 -0.00508547 -0.00465356 -0.00382443 -0.00392062 -0.00408052 -0.00430632 -0.00585642 -0.00560742 -0.00431269 -0.00232816 -0.00227979 -0.00222319 -0.00217484 -0.00214378 -0.00420821 -0.00409283 -0.00399864 -0.00393984 -0.0054298 -0.00525492 -0.00512387 -0.0050438 -0.00557742 -0.00536311 -0.00520948 -0.00511655 -0.00465356 -0.00232816 -0.00431269 -0.00560742 -0.00585642 -0.00430632 -0.00408052 -0.00392062 -0.00382443 -0.00214378 -0.00217484 -0.00222319 -0.00227979 -0.00393984 -0.00399864 -0.00409283 -0.00420821 -0.0050438 -0.00512387 -0.00525492 -0.0054298 -0.00511655 -0.00520948 -0.00536311 -0.00557742 
</DataArray>
<DataArray Name="Warping_Y" format="ascii" type="Float64">
-0.00681527 2.84579e-18 -0.00543639 -0.00408596 -0.00273161 -0.00136844 -2.31836e-18 1.31352e-18 -1.52929e-19 -1.10785e-18 -1.98709e-18 -0.00600725 -0.0011608 -0.00233326 -0.00352824 -0.00475319 -0.00602544 -0.0060843 -0.00619963 -0.00639695 -0.00513175 -0.00385531 -0.00257247 -0.00128692 -0.00493193 -0.0036904 -0.00245676 -0.00122725 -0.00482416 -0.00359215 -0.00238333 -0.00118834 -0.00476967 -0.00354308 -0.00234492 -0.00116732 0.00681527 0.00136844 0.00273161 0.00408596 0.00543639 0.00600725 0.00639695 0.00619963 0.0060843 0.00602544 0.00475319 0.00352824 0.00233326 0.0011608 0.00128692 0.00257247 0.00385531 0.00513175 0.00122725 0.00245676 0.0036904 0.00493193 0.00118834 0.00238333 0.00359215 0.00482416 0.00116732 0.00234492 0.00354308 0.00476967 1.2624e-18 -2.52224e-18 -2.16483e-18 -1.72309e-18 -1.48496e-18 -0.00681527 -0.00136844 -0.00273161 -0.00408596 -0.00543639 -0.00639695 -0.00619963 -0.0060843 -0.00602544 -0.00476967 -0.00354308 -0.00234492 -0.00116732 -0.00482416 -0.00359215 -0.00238333 -0.00118834 -0.00493193 -0.0036904 -0.00245676 -0.00122725 -0.00513175 -0.00385531 -0.00257247 -0.00128692 0.00681527 0.00602544 0.0060843 0.00619963 0.00639695 0.00543639 0.00408596 0.00273161 0.00136844 0.00116732 0.00234492 0.00354308 0.00476967 0.00118834 0.00238333 0.00359215 0.00482416 0.00122725 0.00245676 0.0036904 0.00493193 0.00128692 0.00257247 0.00385531 0.00513175 
</DataArray>
<DataArray Name="Warping_Z" format="ascii" type="Float64">
0 0 0 0 0 0 0 0 0 0 0 0 0 0 0 0 0 0 0 0 0 0 0 0 0 0 0 0 0 0 0 0 0 0 0 0 0 0 0 0 0 0 0 0 0 0 0 0 0 0 0 0 0 0 0 0 0 0 0 0 0 0 0 0 0 0 0 0 0 0 0 0 0 0 0 0 0 0 0 0 0 0 0 0 0 0 0 0 0 0 0 0 0 0 0 0 0 0 0 0 0 0 0 0 0 0 0 0 0 0 0 0 0 0 0 0 0 0 0 0 0 
</DataArray>
</PointData>
<CellData>
<DataArray Name="MaterialId" format="ascii" type="Float64">
3 3 3 3 3 3 3 3 3 3 3 3 3 3 3 3 3 3 3 3 3 3 3 3 3 3 3 3 3 3 3 3 3 3 3 3 3 3 3 3 3 3 3 3 3 3 3 3 3 3 3 3 3 3 3 3 3 3 3 3 3 3 3 3 3 3 3 3 3 3 3 3 3 3 3 3 3 3 3 3 3 3 3 3 3 3 3 3 3 3 3 3 3 3 3 3 3 3 3 3 
</DataArray>
<DataArray Name="FiberAngle" format="ascii" type="Float64">
22.5 22.5 22.5 22.5 22.5 22.5 22.5 22.5 22.5 22.5 22.5 22.5 22.5 22.5 22.5 22.5 22.5 22.5 22.5 22.5 22.5 22.5 22.5 22.5 22.5 22.5 22.5 22.5 22.5 22.5 22.5 22.5 22.5 22.5 22.5 22.5 22.5 22.5 22.5 22.5 22.5 22.5 22.5 22.5 22.5 22.5 22.5 22.5 22.5 22.5 22.5 22.5 22.5 22.5 22.5 22.5 22.5 22.5 22.5 22.5 22.5 22.5 22.5 22.5 22.5 22.5 22.5 22.5 22.5 22.5 22.5 22.5 22.5 22.5 22.5 22.5 22.5 22.5 22.5 22.5 22.5 22.5 22.5 22.5 22.5 22.5 22.5 22.5 22.5 22.5 22.5 22.5 22.5 22.5 22.5 22.5 22.5 22.5 22.5 22.5 
</DataArray>
<DataArray Name="Strain_11" format="ascii" type="Float64">
0.123699 -0.0198312 -0.125816 -0.195648 -0.230397 0.127684 -0.0127907 -0.119184 -0.189903 -0.225149 0.128572 -0.00969009 -0.114366 -0.184672 -0.219902 0.129049 -0.00791831 -0.111459 -0.180993 -0.215931 0.129262 -0.00706436 -0.110044 -0.179142 -0.21385 0.129262 -0.00706436 -0.110044 -0.179142 -0.21385 0.129049 -0.00791831 -0.111459 -0.180993 -0.215931 0.128572 -0.00969009 -0.114366 -0.184672 -0.219902 0.127684 -0.0127907 -0.119184 -0.189903 -0.225149 0.123699 -0.0198312 -0.125816 -0.195648 -0.230397 -0.230397 -0.195648 -0.125816 -0.0198312 0.123699 -0.225149 -0.189903 -0.119184 -0.0127907 0.127684 -0.219902 -0.184672 -0.114366 -0.00969009 0.128572 -0.215931 -0.180993 -0.111459 -0.00791831 0.129049 -0.21385 -0.179142 -0.110044 -0.00706436 0.129262 -0.21385 -0.179142 -0.110044 -0.00706436 0.129262 -0.215931 -0.180993 -0.111459 -0.00791831 0.129049 -0.219902 -0.184672 -0.114366 -0.00969009 0.128572 -0.225149 -0.189903 -0.119184 -0.0127907 0.127684 -0.230397 -0.195648 -0.125816 -0.0198312 0.123699 
</DataArray>
<DataArray Name="Strain_22" format="ascii" type="Float64">
0.132204 0.126645 0.126392 0.125795 0.125492 0.131343 0.125899 0.123677 0.12293 0.122577 0.131859 0.125824 0.122123 0.120349 0.119657 0.132436 0.125753 0.121225 0.11863 0.117503 0.132768 0.125708 0.12078 0.117783 0.116406 0.132768 0.125708 0.12078 0.117783 0.116406 0.132436 0.125753 0.121225 0.11863 0.117503 0.131859 0.125824 0.122123 0.120349 0.119657 0.131343 0.125899 0.123677 0.12293 0.122577 0.132204 0.126645 0.126392 0.125795 0.125492 0.125492 0.125795 0.126392 0.126645 0.132204 0.122577 0.12293 0.123677 0.125899 0.131343 0.119657 0.120349 0.122123 0.125824 0.131859 0.117503 0.11863 0.121225 0.125753 0.132436 0.116406 0.117783 0.12078 0.125708 0.132768 0.116406 0.117783 0.12078 0.125708 0.132768 0.117503 0.11863 0.121225 0.125753 0.132436 0.119657 0.120349 0.122123 0.125824 0.131859 0.122577 0.12293 0.123677 0.125899 0.131343 0.125492 0.125795 0.126392 0.126645 0.132204 
</DataArray>
<DataArray Name="Strain_12" format="ascii" type="Float64">
0.00483638 -0.00297526 -0.00294988 -0.00197499 -0.000684798 0.00475908 -0.00122386 -0.00421202 -0.00342074 -0.0012644 0.0038134 -0.000202817 -0.00267789 -0.00275247 -0.00109234 0.00257766 0.00011927 -0.00132736 -0.00152191 -0.000644252 0.000917496 8.67282e-05 -0.000389261 -0.000467767 -0.000201673 -0.000917496 -8.67282e-05 0.000389261 0.000467767 0.000201673 -0.00257766 -0.00011927 0.00132736 0.00152191 0.000644252 -0.0038134 0.000202817 0.00267789 0.00275247 0.00109234 -0.00475908 0.00122386 0.00421202 0.00342074 0.0012644 -0.00483638 0.00297526 0.00294988 0.00197499 0.000684798 0.000684798 0.00197499 0.00294988 0.00297526 -0.00483638 0.0012644 0.00342074 0.00421202 0.00122386 -0.00475908 0.00109234 0.00275247 0.00267789 0.000202817 -0.0038134 0.000644252 0.00152191 0.00132736 -0.00011927 -0.00257766 0.000201673 0.000467767 0.000389261 -8.67282e-05 -0.000917496 -0.000201673 -0.000467767 -0.000389261 8.67282e-05 0.000917496 -0.000644252 -0.00152191 -0.00132736 0.00011927 0.00257766 -0.00109234 -0.00275247 -0.00267789 -0.000202817 0.0038134 -0.0012644 -0.00342074 -0.00421202 -0.00122386 0.00475908 -0.000684798 -0.00197499 -0.00294988 -0.00297526 0.00483638 
</DataArray>
<DataArray Name="Strain_13" format="ascii" type="Float64">
0.439006 0.803358 1.06933 1.24428 1.33119 0.417242 0.75937 1.01696 1.18819 1.27361 0.409462 0.736846 0.984928 1.1512 1.23451 0.405236 0.724866 0.966847 1.12925 1.21076 0.403397 0.719506 0.958642 1.11909 1.19963 0.403397 0.719506 0.958642 1.11909 1.19963 0.405236 0.724866 0.966847 1.12925 1.21076 0.409462 0.736846 0.984928 1.1512 1.23451 0.417242 0.75937 1.01696 1.18819 1.27361 0.439006 0.803358 1.06933 1.24428 1.33119 1.33119 1.24428 1.06933 0.803358 0.439006 1.27361 1.18819 1.01696 0.75937 0.417242 1.23451 1.1512 0.984928 0.736846 0.409462 1.21076 1.12925 0.966847 0.724866 0.405236 1.19963 1.11909 0.958642 0.719506 0.403397 1.19963 1.11909 0.958642 0.719506 0.403397 1.21076 1.12925 0.966847 0.724866 0.405236 1.23451 1.1512 0.984928 0.736846 0.409462 1.27361 1.18819 1.01696 0.75937 0.417242 1.33119 1.24428 1.06933 0.803358 0.439006 
</DataArray>
<DataArray Name="Strain_23" format="ascii" type="Float64">
-0.0427863 -0.0185298 -0.00963263 -0.00472299 -0.00142503 -0.0788163 -0.043637 -0.0236916 -0.011852 -0.00360333 -0.074713 -0.0462962 -0.0268902 -0.0138332 -0.00425356 -0.0512566 -0.0332741 -0.0201352 -0.0106214 -0.00329964 -0.0180809 -0.01196 -0.00736211 -0.00393344 -0.0012296 0.0180809 0.01196 0.00736211 0.00393344 0.0012296 0.0512566 0.0332741 0.0201352 0.0106214 0.00329964 0.074713 0.0462962 0.0268902 0.0138332 0.00425356 0.0788163 0.043637 0.0236916 0.011852 0.00360333 0.0427863 0.0185298 0.00963263 0.00472299 0.00142503 0.00142503 0.00472299 0.00963263 0.0185298 0.0427863 0.00360333 0.011852 0.0236916 0.043637 0.0788163 0.00425356 0.0138332 0.0268902 0.0462962 0.074713 0.00329964 0.0106214 0.0201352 0.0332741 0.0512566 0.0012296 0.00393344 0.00736211 0.01196 0.0180809 -0.0012296 -0.00393344 -0.00736211 -0.01196 -0.0180809 -0.00329964 -0.0106214 -0.0201352 -0.0332741 -0.0512566 -0.00425356 -0.0138332 -0.0268902 -0.0462962 -0.074713 -0.00360333 -0.011852 -0.0236916 -0.043637 -0.0788163 -0.00142503 -0.00472299 -0.00963263 -0.0185298 -0.0427863 
</DataArray>
<DataArray Name="Strain_33" format="ascii" type="Float64">
-0.224175 -0.0533751 0.0747249 0.160125 0.202825 -0.224175 -0.0533751 0.074725 0.160125 0.202825 -0.224175 -0.0533751 0.074725 0.160125 0.202825 -0.224175 -0.0533751 0.074725 0.160125 0.202825 -0.224175 -0.0533751 0.074725 0.160125 0.202825 -0.224175 -0.0533751 0.074725 0.160125 0.202825 -0.224175 -0.0533751 0.074725 0.160125 0.202825 -0.224175 -0.0533751 0.074725 0.160125 0.202825 -0.224175 -0.0533751 0.074725 0.160125 0.202825 -0.224175 -0.0533751 0.0747249 0.160125 0.202825 0.202825 0.160125 0.0747249 -0.0533751 -0.224175 0.202825 0.160125 0.074725 -0.0533751 -0.224175 0.202825 0.160125 0.074725 -0.0533751 -0.224175 0.202825 0.160125 0.074725 -0.0533751 -0.224175 0.202825 0.160125 0.074725 -0.0533751 -0.224175 0.202825 0.160125 0.074725 -0.0533751 -0.224175 0.202825 0.160125 0.074725 -0.0533751 -0.224175 0.202825 0.160125 0.074725 -0.0533751 -0.224175 0.202825 0.160125 0.074725 -0.0533751 -0.224175 0.202825 0.160125 0.0747249 -0.0533751 -0.224175 
</DataArray>
<DataArray Name="Stress_11" format="ascii" type="Float64">
16.8563 16.9703 17.257 17.4951 17.6244 16.8784 16.9037 16.8624 16.8789 16.8995 16.8379 16.8079 16.7344 16.6558 16.6163 16.8254 16.7734 16.6882 16.5992 16.5435 16.8237 16.7664 16.6797 16.5927 16.5381 16.8237 16.7664 16.6797 16.5927 16.5381 16.8254 16.7734 16.6882 16.5992 16.5435 16.8379 16.8079 16.7344 16.6558 16.6163 16.8784 16.9037 16.8624 16.8789 16.8995 16.8563 16.9703 17.257 17.4951 17.6244 17.6244 17.4951 17.257 16.9703 16.8563 16.8995 16.8789 16.8624 16.9037 16.8784 16.6163 16.6558 16.7344 16.8079 16.8379 16.5435 16.5992 16.6882 16.7734 16.8254 16.5381 16.5927 16.6797 16.7664 16.8237 16.5381 16.5927 16.6797 16.7664 16.8237 16.5435 16.5992 16.6882 16.7734 16.8254 16.6163 16.6558 16.7344 16.8079 16.8379 16.8995 16.8789 16.8624 16.9037 16.8784 17.6244 17.4951 17.257 16.9703 16.8563 
</DataArray>
<DataArray Name="Stress_22" format="ascii" type="Float64">
13.7873 13.0373 13.0549 13.0428 13.0427 13.844 13.2464 13.004 12.9463 12.9244 13.9532 13.376 13.0133 12.8426 12.7799 14.0511 13.4451 13.0223 12.7767 12.6699 14.1045 13.4765 13.0249 12.7447 12.6145 14.1045 13.4765 13.0249 12.7447 12.6145 14.0511 13.4451 13.0223 12.7767 12.6699 13.9532 13.376 13.0133 12.8426 12.7799 13.844 13.2464 13.004 12.9463 12.9244 13.7873 13.0373 13.0549 13.0428 13.0427 13.0427 13.0428 13.0549 13.0373 13.7873 12.9244 12.9463 13.004 13.2464 13.844 12.7799 12.8426 13.0133 13.376 13.9532 12.6699 12.7767 13.0223 13.4451 14.0511 12.6145 12.7447 13.0249 13.4765 14.1045 12.6145 12.7447 13.0249 13.4765 14.1045 12.6699 12.7767 13.0223 13.4451 14.0511 12.7799 12.8426 13.0133 13.376 13.9532 12.9244 12.9463 13.004 13.2464 13.844 13.0427 13.0428 13.0549 13.0373 13.7873 
</DataArray>
<DataArray Name="Stress_12" format="ascii" type="Float64">
0.0976291 -0.218633 -0.18587 -0.11834 -0.040281 -0.0337345 -0.217265 -0.300532 -0.21795 -0.0778115 -0.067896 -0.174119 -0.232888 -0.190562 -0.0712552 -0.0485616 -0.111504 -0.1395 -0.115877 -0.0448221 -0.016707 -0.0378217 -0.0460621 -0.0379802 -0.0147263 0.016707 0.0378217 0.0460621 0.0379802 0.0147263 0.0485616 0.111504 0.1395 0.115877 0.0448221 0.067896 0.174119 0.232888 0.190562 0.0712552 0.0337345 0.217265 0.300532 0.21795 0.0778115 -0.0976291 0.218633 0.18587 0.11834 0.040281 0.040281 0.11834 0.18587 0.218633 -0.0976291 0.0778115 0.21795 0.300532 0.217265 0.0337345 0.0712552 0.190562 0.232888 0.174119 0.067896 0.0448221 0.115877 0.1395 0.111504 0.0485616 0.0147263 0.0379802 0.0460621 0.0378217 0.016707 -0.0147263 -0.0379802 -0.0460621 -0.0378217 -0.016707 -0.0448221 -0.115877 -0.1395 -0.111504 -0.0485616 -0.0712552 -0.190562 -0.232888 -0.174119 -0.067896 -0.0778115 -0.21795 -0.300532 -0.217265 -0.0337345 -0.040281 -0.11834 -0.18587 -0.218633 0.0976291 
</DataArray>
<DataArray Name="Stress_13" format="ascii" type="Float64">
23.3811 74.1019 111.448 136.129 148.418 21.3025 69.875 106.376 130.665 142.792 20.5454 67.698 103.292 127.097 139.014 20.1336 66.5432 101.556 124.993 136.738 19.9544 66.028 100.77 124.023 135.678 19.9544 66.028 100.77 124.023 135.678 20.1336 66.5432 101.556 124.993 136.738 20.5454 67.698 103.292 127.097 139.014 21.3025 69.875 106.376 130.665 142.792 23.3811 74.1019 111.448 136.129 148.418 148.418 136.129 111.448 74.1019 23.3811 142.792 130.665 106.376 69.875 21.3025 139.014 127.097 103.292 67.698 20.5454 136.738 124.993 101.556 66.5432 20.1336 135.678 124.023 100.77 66.028 19.9544 135.678 124.023 100.77 66.028 19.9544 136.738 124.993 101.556 66.5432 20.1336 139.014 127.097 103.292 67.698 20.5454 142.792 130.665 106.376 69.875 21.3025 148.418 136.129 111.448 74.1019 23.3811 
</DataArray>
<DataArray Name="Stress_23" format="ascii" type="Float64">
-2.48742 -1.09517 -0.57428 -0.283445 -0.085836 -4.59673 -2.55864 -1.40169 -0.705856 -0.215393 -4.35988 -2.71069 -1.5835 -0.819467 -0.252846 -2.99122 -1.9473 -1.18332 -0.627111 -0.195424 -1.05513 -0.699781 -0.432321 -0.2319 -0.0726881 1.05513 0.699781 0.432321 0.2319 0.0726881 2.99122 1.9473 1.18332 0.627111 0.195424 4.35988 2.71069 1.5835 0.819467 0.252846 4.59673 2.55864 1.40169 0.705856 0.215393 2.48742 1.09517 0.57428 0.283445 0.085836 0.085836 0.283445 0.57428 1.09517 2.48742 0.215393 0.705856 1.40169 2.55864 4.59673 0.252846 0.819467 1.5835 2.71069 4.35988 0.195424 0.627111 1.18332 1.9473 2.99122 0.0726881 0.2319 0.432321 0.699781 1.05513 -0.0726881 -0.2319 -0.432321 -0.699781 -1.05513 -0.195424 -0.627111 -1.18332 -1.9473 -2.99122 -0.252846 -0.819467 -1.5835 -2.71069 -4.35988 -0.215393 -0.705856 -1.40169 -2.55864 -4.59673 -0.085836 -0.283445 -0.57428 -1.09517 -2.48742 
</DataArray>
<DataArray Name="Stress_33" format="ascii" type="Float64">
-30.8069 64.746 135.899 183.133 206.704 -32.8089 60.6592 130.849 177.629 201.008 -33.5365 58.5403 127.819 174.081 197.23 -33.9225 57.4211 126.121 172.01 194.98 -34.0875 56.9243 125.356 171.061 193.938 -34.0875 56.9243 125.356 171.061 193.938 -33.9225 57.4211 126.121 172.01 194.98 -33.5365 58.5403 127.819 174.081 197.23 -32.8089 60.6592 130.849 177.629 201.008 -30.8069 64.746 135.899 183.133 206.704 206.704 183.133 135.899 64.746 -30.8069 201.008 177.629 130.849 60.6592 -32.8089 197.23 174.081 127.819 58.5403 -33.5365 194.98 172.01 126.121 57.4211 -33.9225 193.938 171.061 125.356 56.9243 -34.0875 193.938 171.061 125.356 56.9243 -34.0875 194.98 172.01 126.121 57.4211 -33.9225 197.23 174.081 127.819 58.5403 -33.5365 201.008 177.629 130.849 60.6592 -32.8089 206.704 183.133 135.899 64.746 -30.8069 
</DataArray>
</CellData>
<Points>
<DataArray NumberOfComponents="3" format="ascii" type="Float64">
-0.05 -0.05 0 -0.05 0 0 -0.05 -0.04 0 -0.05 -0.03 0 -0.05 -0.02 0 -0.05 -0.01 0 0 0 0 -0.04 0 0 -0.03 0 0 -0.02 0 0 -0.01 0 0 0 -0.05 0 0 -0.01 0 0 -0.02 0 0 -0.03 0 0 -0.04 0 -0.01 -0.05 0 -0.02 -0.05 0 -0.03 -0.05 0 -0.04 -0.05 0 -0.04 -0.04 0 -0.04 -0.03 0 -0.04 -0.02 0 -0.04 -0.01 0 -0.03 -0.04 0 -0.03 -0.03 0 -0.03 -0.02 0 -0.03 -0.01 0 -0.02 -0.04 0 -0.02 -0.03 0 -0.02 -0.02 0 -0.02 -0.01 0 -0.01 -0.04 0 -0.01 -0.03 0 -0.01 -0.02 0 -0.01 -0.01 0 -0.05 0.05 0 -0.05 0.01 0 -0.05 0.02 0 -0.05 0.03 0 -0.05 0.04 0 0 0.05 0 -0.04 0.05 0 -0.03 0.05 0 -0.02 0.05 0 -0.01 0.05 0 0 0.04 0 0 0.03 0 0 0.02 0 0 0.01 0 -0.04 0.01 0 -0.04 0.02 0 -0.04 0.03 0 -0.04 0.04 0 -0.03 0.01 0 -0.03 0.02 0 -0.03 0.03 0 -0.03 0.04 0 -0.02 0.01 0 -0.02 0.02 0 -0.02 0.03 0 -0.02 0.04 0 -0.01 0.01 0 -0.01 0.02 0 -0.01 0.03 0 -0.01 0.04 0 0.05 0 0 0.01 0 0 0.02 0 0 0.03 0 0 0.04 0 0 0.05 -0.05 0 0.05 -0.01 0 0.05 -0.02 0 0.05 -0.03 0 0.05 -0.04 0 0.04 -0.05 0 0.03 -0.05 0 0.02 -0.05 0 0.01 -0.05 0 0.01 -0.04 0 0.01 -0.03 0 0.01 -0.02 0 0.01 -0.01 0 0.02 -0.04 0 0.02 -0.03 0 0.02 -0.02 0 0.02 -0.01 0 0.03 -0.04 0 0.03 -0.03 0 0.03 -0.02 0 0.03 -0.01 0 0.04 -0.04 0 0.04 -0.03 0 0.04 -0.02 0 0.04 -0.01 0 0.05 0.05 0 0.01 0.05 0 0.02 0.05 0 0.03 0.05 0 0.04 0.05 0 0.05 0.04 0 0.05 0.03 0 0.05 0.02 0 0.05 0.01 0 0.01 0.01 0 0.01 0.02 0 0.01 0.03 0 0.01 0.04 0 0.02 0.01 0 0.02 0.02 0 0.02 0.03 0 0.02 0.04 0 0.03 0.01 0 0.03 0.02 0 0.03 0.03 0 0.03 0.04 0 0.04 0.01 0 0.04 0.02 0 0.04 0.03 0 0.04 0.04 0 
</DataArray>
</Points>
<Cells>
<DataArray Name="connectivity" format="ascii" type="Int64">
0 19 20 2 19 18 24 20 18 17 28 24 17 16 32 28 16 11 15 32 2 20 21 3 20 24 25 21 24 28 29 25 28 32 33 29 32 15 14 33 3 21 22 4 21 25 26 22 25 29 30 26 29 33 34 30 33 14 13 34 4 22 23 5 22 26 27 23 26 30 31 27 30 34 35 31 34 13 12 35 5 23 7 1 23 27 8 7 27 31 9 8 31 35 10 9 35 12 6 10 1 7 50 37 7 8 54 50 8 9 58 54 9 10 62 58 10 6 49 62 37 50 51 38 50 54 55 51 54 58 59 55 58 62 63 59 62 49 48 63 38 51 52 39 51 55 56 52 55 59 60 56 59 63 64 60 63 48 47 64 39 52 53 40 52 56 57 53 56 60 61 57 60 64 65 61 64 47 46 65 40 53 42 36 53 57 43 42 57 61 44 43 61 65 45 44 65 46 41 45 11 79 80 15 79 78 84 80 78 77 88 84 77 76 92 88 76 71 75 92 15 80 81 14 80 84 85 81 84 88 89 85 88 92 93 89 92 75 74 93 14 81 82 13 81 85 86 82 85 89 90 86 89 93 94 90 93 74 73 94 13 82 83 12 82 86 87 83 86 90 91 87 90 94 95 91 94 73 72 95 12 83 67 6 83 87 68 67 87 91 69 68 91 95 70 69 95 72 66 70 6 67 105 49 67 68 109 105 68 69 113 109 69 70 117 113 70 66 104 117 49 105 106 48 105 109 110 106 109 113 114 110 113 117 118 114 117 104 103 118 48 106 107 47 106 110 111 107 110 114 115 111 114 118 119 115 118 103 102 119 47 107 108 46 107 111 112 108 111 115 116 112 115 119 120 116 119 102 101 120 46 108 97 41 108 112 98 97 112 116 99 98 116 120 100 99 120 101 96 100 
</DataArray>
<DataArray Name="offsets" format="ascii" type="Int64">
4 8 12 16 20 24 28 32 36 40 44 48 52 56 60 64 68 72 76 80 84 88 92 96 100 104 108 112 116 120 124 128 132 136 140 144 148 152 156 160 164 168 172 176 180 184 188 192 196 200 204 208 212 216 220 224 228 232 236 240 244 248 252 256 260 264 268 272 276 280 284 288 292 296 300 304 308 312 316 320 324 328 332 336 340 344 348 352 356 360 364 368 372 376 380 384 388 392 396 400 
</DataArray>
<DataArray Name="types" format="ascii" type="Int8">
9 9 9 9 9 9 9 9 9 9 9 9 9 9 9 9 9 9 9 9 9 9 9 9 9 9 9 9 9 9 9 9 9 9 9 9 9 9 9 9 9 9 9 9 9 9 9 9 9 9 9 9 9 9 9 9 9 9 9 9 9 9 9 9 9 9 9 9 9 9 9 9 9 9 9 9 9 9 9 9 9 9 9 9 9 9 9 9 9 9 9 9 9 9 9 9 9 9 9 9 
</DataArray>
</Cells>
</Piece>
</UnstructuredGrid>
</VTKFile>
