<?xml version="1.0"?>
<VTKFile byte_order="LittleEndian" type="UnstructuredGrid" version="0.1">
<UnstructuredGrid>
<Piece NumberOfCells="100" NumberOfPoints="121">
<PointData>
<DataArray Name="Warping_X" format="ascii" type="Float64">
-0.000685364 1.88695e-19 0.000210973 0.0005999 0.000606078 0.000364035 1.16468e-18 1.53022e-19 -4.41351e-20 3.93845e-19 7.87244e-19 0.00409639 0.00118471 0.00227943 0.00319575 0.00384051 0.0038835 0.00325289 0.00223042 0.000869484 0.00140166 0.0014747 0.00118431 0.000651809 0.00241626 0.00219399 0.00164795 0.000879778 0.00319243 0.00273842 0.00199243 0.0010469 0.00367635 0.00307957 0.00220656 0.00114984 0.000685364 -0.000364035 -0.000606078 -0.0005999 -0.000210973 -0.00409639 -0.000869484 -0.00223042 -0.00325289 -0.0038835 -0.00384051 -0.00319575 -0.00227943 -0.00118471 -0.000651809 -0.00118431 -0.0014747 -0.00140166 -0.000879778 -0.00164795 -0.00219399 -0.00241626 -0.0010469 -0.00199243 -0.00273842 -0.00319243 -0.00114984 -0.00220656 -0.00307957 -0.00367635 2.23273e-18 1.37941e-18 1.50674e-18 1.20534e-18 2.19186e-18 -0.000685364 0.000364035 0.000606078 0.0005999 0.000210973 0.000869484 0.00223042 0.00325289 0.0038835 0.00367635 0.00307957 0.00220656 0.00114984 0.00319243 0.00273842 0.00199243 0.0010469 0.00241626 0.00219399 0.00164795 0.000879778 0.00140166 0.0014747 0.00118431 0.000651809 0.000685364 -0.0038835 -0.00325289 -0.00223042 -0.000869484 -0.000210973 -0.0005999 -0.000606078 -0.000364035 -0.00114984 -0.00220656 -0.00307957 -0.00367635 -0.0010469 -0.00199243 -0.00273842 -0.00319243 -0.000879778 -0.00164795 -0.00219399 -0.00241626 -0.000651809 -0.00118431 -0.0014747 -0.00140166 
</DataArray>
<DataArray Name="Warping_Y" format="ascii" type="Float64">
0.00200951 0.00426201 0.00283316 0.00346734 0.00391047 0.00417425 1.45079e-20 0.00281842 0.00175314 0.000990722 0.000440643 -5.43842e-19 -2.36068e-19 -5.73722e-19 -7.30729e-19 -8.22451e-19 8.84842e-06 0.000113257 0.000410302 0.000999812 0.00163563 0.00214776 0.00251978 0.00274372 0.000860269 0.00123676 0.00151988 0.00169437 0.000402971 0.000645742 0.000832744 0.00095057 0.000150709 0.000269487 0.000361594 0.000420422 0.00200951 0.00417425 0.00391047 0.00346734 0.00283316 -2.28458e-20 0.000999812 0.000410302 0.000113257 8.84842e-06 4.47819e-20 4.85992e-19 4.92666e-19 2.94668e-19 0.00274372 0.00251978 0.00214776 0.00163563 0.00169437 0.00151988 0.00123676 0.000860269 0.00095057 0.000832744 0.000645742 0.000402971 0.000420422 0.000361594 0.000269487 0.000150709 -0.00426201 -0.000440643 -0.000990722 -0.00175314 -0.00281842 -0.00200951 -0.00417425 -0.00391047 -0.00346734 -0.00283316 -0.000999812 -0.000410302 -0.000113257 -8.84842e-06 -0.000150709 -0.000269487 -0.000361594 -0.000420422 -0.000402971 -0.000645742 -0.000832744 -0.00095057 -0.000860269 -0.00123676 -0.00151988 -0.00169437 -0.00163563 -0.00214776 -0.00251978 -0.00274372 -0.00200951 -8.84842e-06 -0.000113257 -0.000410302 -0.000999812 -0.00283316 -0.00346734 -0.00391047 -0.00417425 -0.000420422 -0.000361594 -0.000269487 -0.000150709 -0.00095057 -0.000832744 -0.000645742 -0.000402971 -0.00169437 -0.00151988 -0.00123676 -0.000860269 -0.00274372 -0.00251978 -0.00214776 -0.00163563 
</DataArray>
<DataArray Name="Warping_Z" format="ascii" type="Float64">
0 0 0 0 0 0 0 0 0 0 0 0 0 0 0 0 0 0 0 0 0 0 0 0 0 0 0 0 0 0 0 0 0 0 0 0 0 0 0 0 0 0 0 0 0 0 0 0 0 0 0 0 0 0 0 0 0 0 0 0 0 0 0 0 0 0 0 0 0 0 0 0 0 0 0 0 0 0 0 0 0 0 0 0 0 0 0 0 0 0 0 0 0 0 0 0 0 0 0 0 0 0 0 0 0 0 0 0 0 0 0 0 0 0 0 0 0 0 0 0 0 
</DataArray>
</PointData>
<CellData>
<DataArray Name="MaterialId" format="ascii" type="Float64">
3 3 3 3 3 3 3 3 3 3 3 3 3 3 3 3 3 3 3 3 3 3 3 3 3 3 3 3 3 3 3 3 3 3 3 3 3 3 3 3 3 3 3 3 3 3 3 3 3 3 3 3 3 3 3 3 3 3 3 3 3 3 3 3 3 3 3 3 3 3 3 3 3 3 3 3 3 3 3 3 3 3 3 3 3 3 3 3 3 3 3 3 3 3 3 3 3 3 3 3 
</DataArray>
<DataArray Name="FiberAngle" format="ascii" type="Float64">
22.5 22.5 22.5 22.5 22.5 22.5 22.5 22.5 22.5 22.5 22.5 22.5 22.5 22.5 22.5 22.5 22.5 22.5 22.5 22.5 22.5 22.5 22.5 22.5 22.5 22.5 22.5 22.5 22.5 22.5 22.5 22.5 22.5 22.5 22.5 22.5 22.5 22.5 22.5 22.5 22.5 22.5 22.5 22.5 22.5 22.5 22.5 22.5 22.5 22.5 22.5 22.5 22.5 22.5 22.5 22.5 22.5 22.5 22.5 22.5 22.5 22.5 22.5 22.5 22.5 22.5 22.5 22.5 22.5 22.5 22.5 22.5 22.5 22.5 22.5 22.5 22.5 22.5 22.5 22.5 22.5 22.5 22.5 22.5 22.5 22.5 22.5 22.5 22.5 22.5 22.5 22.5 22.5 22.5 22.5 22.5 22.5 22.5 22.5 22.5 
</DataArray>
<DataArray Name="Strain_11" format="ascii" type="Float64">
0.137277 0.118777 0.0899321 0.055727 0.0188519 0.103274 0.0866947 0.0660303 0.0412535 0.0140166 0.0726514 0.0591467 0.0444456 0.027764 0.00945218 0.0433004 0.0345806 0.0255799 0.0158536 0.00538697 0.0143887 0.0113985 0.00835618 0.00514676 0.00174379 -0.0143887 -0.0113985 -0.00835618 -0.00514676 -0.00174379 -0.0433004 -0.0345806 -0.0255799 -0.0158536 -0.00538697 -0.0726514 -0.0591467 -0.0444456 -0.027764 -0.00945218 -0.103274 -0.0866947 -0.0660303 -0.0412535 -0.0140166 -0.137277 -0.118777 -0.0899321 -0.055727 -0.0188519 -0.0188519 -0.055727 -0.0899321 -0.118777 -0.137277 -0.0140166 -0.0412535 -0.0660303 -0.0866947 -0.103274 -0.00945218 -0.027764 -0.0444456 -0.0591467 -0.0726514 -0.00538697 -0.0158536 -0.0255799 -0.0345806 -0.0433004 -0.00174379 -0.00514676 -0.00835618 -0.0113985 -0.0143887 0.00174379 0.00514676 0.00835618 0.0113985 0.0143887 0.00538697 0.0158536 0.0255799 0.0345806 0.0433004 0.00945218 0.027764 0.0444456 0.0591467 0.0726514 0.0140166 0.0412535 0.0660303 0.0866947 0.103274 0.0188519 0.055727 0.0899321 0.118777 0.137277 
</DataArray>
<DataArray Name="Strain_22" format="ascii" type="Float64">
0.0729739 0.0542894 0.036984 0.0215787 0.00709302 0.0573148 0.0444309 0.0309633 0.0180775 0.00593891 0.0407579 0.0327569 0.0235058 0.0139554 0.00460536 0.0243858 0.0199218 0.014616 0.00883271 0.00294137 0.00812303 0.00667329 0.00494581 0.00301865 0.00101107 -0.00812303 -0.00667329 -0.00494581 -0.00301865 -0.00101107 -0.0243858 -0.0199218 -0.014616 -0.00883271 -0.00294137 -0.0407579 -0.0327569 -0.0235058 -0.0139554 -0.00460536 -0.0573148 -0.0444309 -0.0309633 -0.0180775 -0.00593891 -0.0729739 -0.0542894 -0.036984 -0.0215787 -0.00709302 -0.00709302 -0.0215787 -0.036984 -0.0542894 -0.0729739 -0.00593891 -0.0180775 -0.0309633 -0.0444309 -0.0573148 -0.00460536 -0.0139554 -0.0235058 -0.0327569 -0.0407579 -0.00294137 -0.00883271 -0.014616 -0.0199218 -0.0243858 -0.00101107 -0.00301865 -0.00494581 -0.00667329 -0.00812303 0.00101107 0.00301865 0.00494581 0.00667329 0.00812303 0.00294137 0.00883271 0.014616 0.0199218 0.0243858 0.00460536 0.0139554 0.0235058 0.0327569 0.0407579 0.00593891 0.0180775 0.0309633 0.0444309 0.0573148 0.00709302 0.0215787 0.036984 0.0542894 0.0729739 
</DataArray>
<DataArray Name="Strain_12" format="ascii" type="Float64">
-0.0389358 -0.032343 -0.0314482 -0.0312142 -0.0311295 -0.102757 -0.0917796 -0.0862296 -0.0839653 -0.083087 -0.149724 -0.137366 -0.128509 -0.12332 -0.12102 -0.179788 -0.167496 -0.157232 -0.150177 -0.146673 -0.194497 -0.182311 -0.171645 -0.163848 -0.159781 -0.194497 -0.182311 -0.171645 -0.163848 -0.159781 -0.179788 -0.167496 -0.157232 -0.150177 -0.146673 -0.149724 -0.137366 -0.128509 -0.12332 -0.12102 -0.102757 -0.0917796 -0.0862296 -0.0839653 -0.083087 -0.0389358 -0.032343 -0.0314482 -0.0312142 -0.0311295 -0.0311295 -0.0312142 -0.0314482 -0.032343 -0.0389358 -0.083087 -0.0839653 -0.0862296 -0.0917796 -0.102757 -0.12102 -0.12332 -0.128509 -0.137366 -0.149724 -0.146673 -0.150177 -0.157232 -0.167496 -0.179788 -0.159781 -0.163848 -0.171645 -0.182311 -0.194497 -0.159781 -0.163848 -0.171645 -0.182311 -0.194497 -0.146673 -0.150177 -0.157232 -0.167496 -0.179788 -0.12102 -0.12332 -0.128509 -0.137366 -0.149724 -0.083087 -0.0839653 -0.0862296 -0.0917796 -0.102757 -0.0311295 -0.0312142 -0.0314482 -0.032343 -0.0389358 
</DataArray>
<DataArray Name="Strain_13" format="ascii" type="Float64">
0.357015 0.203184 0.112588 0.0558845 0.0167902 0.309706 0.207059 0.126947 0.0677762 0.0212093 0.226399 0.162728 0.106539 0.0594002 0.0190002 0.137438 0.101507 0.0685573 0.039194 0.0127024 0.0460058 0.03436 0.0234799 0.0135629 0.00442207 -0.0460058 -0.03436 -0.0234799 -0.0135629 -0.00442207 -0.137438 -0.101507 -0.0685573 -0.039194 -0.0127024 -0.226399 -0.162728 -0.106539 -0.0594002 -0.0190002 -0.309706 -0.207059 -0.126947 -0.0677762 -0.0212093 -0.357015 -0.203184 -0.112588 -0.0558845 -0.0167902 -0.0167902 -0.0558845 -0.112588 -0.203184 -0.357015 -0.0212093 -0.0677762 -0.126947 -0.207059 -0.309706 -0.0190002 -0.0594002 -0.106539 -0.162728 -0.226399 -0.0127024 -0.039194 -0.0685573 -0.101507 -0.137438 -0.00442207 -0.0135629 -0.0234799 -0.03436 -0.0460058 0.00442207 0.0135629 0.0234799 0.03436 0.0460058 0.0127024 0.039194 0.0685573 0.101507 0.137438 0.0190002 0.0594002 0.106539 0.162728 0.226399 0.0212093 0.0677762 0.126947 0.207059 0.309706 0.0167902 0.0558845 0.112588 0.203184 0.357015 
</DataArray>
<DataArray Name="Strain_23" format="ascii" type="Float64">
-0.391328 -0.481689 -0.520779 -0.541837 -0.551317 0.538557 0.379935 0.282748 0.226936 0.201143 1.1944 1.01926 0.897077 0.820979 0.784611 1.62161 1.4401 1.30828 1.22301 1.18128 1.83304 1.64932 1.51401 1.42534 1.38154 1.83304 1.64932 1.51401 1.42534 1.38154 1.62161 1.4401 1.30828 1.22301 1.18128 1.1944 1.01926 0.897077 0.820979 0.784611 0.538557 0.379935 0.282748 0.226936 0.201143 -0.391328 -0.481689 -0.520779 -0.541837 -0.551317 -0.551317 -0.541837 -0.520779 -0.481689 -0.391328 0.201143 0.226936 0.282748 0.379935 0.538557 0.784611 0.820979 0.897077 1.01926 1.1944 1.18128 1.22301 1.30828 1.4401 1.62161 1.38154 1.42534 1.51401 1.64932 1.83304 1.38154 1.42534 1.51401 1.64932 1.83304 1.18128 1.22301 1.30828 1.4401 1.62161 0.784611 0.820979 0.897077 1.01926 1.1944 0.201143 0.226936 0.282748 0.379935 0.538557 -0.551317 -0.541837 -0.520779 -0.481689 -0.391328 
</DataArray>
<DataArray Name="Strain_33" format="ascii" type="Float64">
-0.434125 -0.33766 -0.241191 -0.144717 -0.0482394 -0.33764 -0.262616 -0.187588 -0.112554 -0.0375185 -0.241163 -0.187577 -0.133988 -0.080395 -0.0267986 -0.144695 -0.112543 -0.0803912 -0.0482363 -0.016079 -0.0482311 -0.037514 -0.0267967 -0.0160786 -0.00535963 0.0482311 0.037514 0.0267967 0.0160786 0.00535963 0.144695 0.112543 0.0803912 0.0482363 0.016079 0.241163 0.187577 0.133988 0.080395 0.0267986 0.33764 0.262616 0.187588 0.112554 0.0375185 0.434125 0.33766 0.241191 0.144717 0.0482394 0.0482394 0.144717 0.241191 0.33766 0.434125 0.0375185 0.112554 0.187588 0.262616 0.33764 0.0267986 0.080395 0.133988 0.187577 0.241163 0.016079 0.0482363 0.0803912 0.112543 0.144695 0.00535963 0.0160786 0.0267967 0.037514 0.0482311 -0.00535963 -0.0160786 -0.0267967 -0.037514 -0.0482311 -0.016079 -0.0482363 -0.0803912 -0.112543 -0.144695 -0.0267986 -0.080395 -0.133988 -0.187577 -0.241163 -0.0375185 -0.112554 -0.187588 -0.262616 -0.33764 -0.0482394 -0.144717 -0.241191 -0.33766 -0.434125 
</DataArray>
<DataArray Name="Stress_11" format="ascii" type="Float64">
-0.239002 -0.329317 -0.345056 -0.25364 -0.0923315 0.098105 0.17701 0.187845 0.129344 0.0451235 0.0279593 0.117992 0.171617 0.14705 0.0566211 0.0110768 0.0425219 0.0755814 0.0736938 0.0304958 0.00172323 0.00943926 0.0183147 0.019295 0.00828028 -0.00172323 -0.00943926 -0.0183147 -0.019295 -0.00828028 -0.0110768 -0.0425219 -0.0755814 -0.0736938 -0.0304958 -0.0279593 -0.117992 -0.171617 -0.14705 -0.0566211 -0.098105 -0.17701 -0.187845 -0.129344 -0.0451235 0.239002 0.329317 0.345056 0.25364 0.0923315 0.0923315 0.25364 0.345056 0.329317 0.239002 -0.0451235 -0.129344 -0.187845 -0.17701 -0.098105 -0.0566211 -0.14705 -0.171617 -0.117992 -0.0279593 -0.0304958 -0.0736938 -0.0755814 -0.0425219 -0.0110768 -0.00828028 -0.019295 -0.0183147 -0.00943926 -0.00172323 0.00828028 0.019295 0.0183147 0.00943926 0.00172323 0.0304958 0.0736938 0.0755814 0.0425219 0.0110768 0.0566211 0.14705 0.171617 0.117992 0.0279593 0.0451235 0.129344 0.187845 0.17701 0.098105 -0.0923315 -0.25364 -0.345056 -0.329317 -0.239002 
</DataArray>
<DataArray Name="Stress_22" format="ascii" type="Float64">
-0.118951 0.106727 0.0642705 0.0363743 0.0112397 -0.185604 0.105326 0.146317 0.0909978 0.0301402 -0.202105 0.09134 0.169354 0.126738 0.0441653 -0.142535 0.0528537 0.124302 0.103118 0.0380658 -0.0500516 0.016698 0.0442752 0.0386074 0.0146209 0.0500516 -0.016698 -0.0442752 -0.0386074 -0.0146209 0.142535 -0.0528537 -0.124302 -0.103118 -0.0380658 0.202105 -0.09134 -0.169354 -0.126738 -0.0441653 0.185604 -0.105326 -0.146317 -0.0909978 -0.0301402 0.118951 -0.106727 -0.0642705 -0.0363743 -0.0112397 -0.0112397 -0.0363743 -0.0642705 -0.106727 0.118951 -0.0301402 -0.0909978 -0.146317 -0.105326 0.185604 -0.0441653 -0.126738 -0.169354 -0.09134 0.202105 -0.0380658 -0.103118 -0.124302 -0.0528537 0.142535 -0.0146209 -0.0386074 -0.0442752 -0.016698 0.0500516 0.0146209 0.0386074 0.0442752 0.016698 -0.0500516 0.0380658 0.103118 0.124302 0.0528537 -0.142535 0.0441653 0.126738 0.169354 0.09134 -0.202105 0.0301402 0.0909978 0.146317 0.105326 -0.185604 0.0112397 0.0363743 0.0642705 0.106727 -0.118951 
</DataArray>
<DataArray Name="Stress_12" format="ascii" type="Float64">
-3.38737 -3.36754 -3.4597 -3.5221 -3.55126 -3.38426 -3.38012 -3.43809 -3.51889 -3.56488 -3.48261 -3.46584 -3.44202 -3.44402 -3.45423 -3.51942 -3.52858 -3.46636 -3.40482 -3.37199 -3.52895 -3.55132 -3.48077 -3.39304 -3.33854 -3.52895 -3.55132 -3.48077 -3.39304 -3.33854 -3.51942 -3.52858 -3.46636 -3.40482 -3.37199 -3.48261 -3.46584 -3.44202 -3.44402 -3.45423 -3.38426 -3.38012 -3.43809 -3.51889 -3.56488 -3.38737 -3.36754 -3.4597 -3.5221 -3.55126 -3.55126 -3.5221 -3.4597 -3.36754 -3.38737 -3.56488 -3.51889 -3.43809 -3.38012 -3.38426 -3.45423 -3.44402 -3.44202 -3.46584 -3.48261 -3.37199 -3.40482 -3.46636 -3.52858 -3.51942 -3.33854 -3.39304 -3.48077 -3.55132 -3.52895 -3.33854 -3.39304 -3.48077 -3.55132 -3.52895 -3.37199 -3.40482 -3.46636 -3.52858 -3.51942 -3.45423 -3.44402 -3.44202 -3.46584 -3.48261 -3.56488 -3.51889 -3.43809 -3.38012 -3.38426 -3.55126 -3.5221 -3.4597 -3.36754 -3.38737 
</DataArray>
<DataArray Name="Stress_13" format="ascii" type="Float64">
-6.20185 -11.9793 -11.6855 -8.1346 -2.88852 -1.70571 -4.55533 -5.24913 -3.94863 -1.44797 -0.726157 -1.83899 -2.23068 -1.76424 -0.663267 -0.282471 -0.738363 -0.901788 -0.723158 -0.274839 -0.0758712 -0.196792 -0.242022 -0.194639 -0.0741064 0.0758712 0.196792 0.242022 0.194639 0.0741064 0.282471 0.738363 0.901788 0.723158 0.274839 0.726157 1.83899 2.23068 1.76424 0.663267 1.70571 4.55533 5.24913 3.94863 1.44797 6.20185 11.9793 11.6855 8.1346 2.88852 2.88852 8.1346 11.6855 11.9793 6.20185 1.44797 3.94863 5.24913 4.55533 1.70571 0.663267 1.76424 2.23068 1.83899 0.726157 0.274839 0.723158 0.901788 0.738363 0.282471 0.0741064 0.194639 0.242022 0.196792 0.0758712 -0.0741064 -0.194639 -0.242022 -0.196792 -0.0758712 -0.274839 -0.723158 -0.901788 -0.738363 -0.282471 -0.663267 -1.76424 -2.23068 -1.83899 -0.726157 -1.44797 -3.94863 -5.24913 -4.55533 -1.70571 -2.88852 -8.1346 -11.6855 -11.9793 -6.20185 
</DataArray>
<DataArray Name="Stress_23" format="ascii" type="Float64">
-23.0443 -28.3103 -30.5953 -31.8271 -32.3817 31.1614 21.9152 16.2459 12.987 11.4803 69.3858 59.1771 52.0565 47.6204 45.4997 94.2864 83.705 76.0252 71.0584 68.6281 106.61 95.8995 88.0166 82.8536 80.3044 106.61 95.8995 88.0166 82.8536 80.3044 94.2864 83.705 76.0252 71.0584 68.6281 69.3858 59.1771 52.0565 47.6204 45.4997 31.1614 21.9152 16.2459 12.987 11.4803 -23.0443 -28.3103 -30.5953 -31.8271 -32.3817 -32.3817 -31.8271 -30.5953 -28.3103 -23.0443 11.4803 12.987 16.2459 21.9152 31.1614 45.4997 47.6204 52.0565 59.1771 69.3858 68.6281 71.0584 76.0252 83.705 94.2864 80.3044 82.8536 88.0166 95.8995 106.61 80.3044 82.8536 88.0166 95.8995 106.61 68.6281 71.0584 76.0252 83.705 94.2864 45.4997 47.6204 52.0565 59.1771 69.3858 11.4803 12.987 16.2459 21.9152 31.1614 -32.3817 -31.8271 -30.5953 -28.3103 -23.0443 
</DataArray>
<DataArray Name="Stress_33" format="ascii" type="Float64">
-124.053 -103.442 -76.9615 -47.2823 -15.9352 -93.3877 -75.6981 -55.9783 -34.358 -11.5801 -66.25 -52.6942 -38.4865 -23.4885 -7.90004 -39.6058 -31.27 -22.6714 -13.7667 -4.61939 -13.1851 -10.3768 -7.50166 -4.54457 -1.52299 13.1851 10.3768 7.50166 4.54457 1.52299 39.6058 31.27 22.6714 13.7667 4.61939 66.25 52.6942 38.4865 23.4885 7.90004 93.3877 75.6981 55.9783 34.358 11.5801 124.053 103.442 76.9615 47.2823 15.9352 15.9352 47.2823 76.9615 103.442 124.053 11.5801 34.358 55.9783 75.6981 93.3877 7.90004 23.4885 38.4865 52.6942 66.25 4.61939 13.7667 22.6714 31.27 39.6058 1.52299 4.54457 7.50166 10.3768 13.1851 -1.52299 -4.54457 -7.50166 -10.3768 -13.1851 -4.61939 -13.7667 -22.6714 -31.27 -39.6058 -7.90004 -23.4885 -38.4865 -52.6942 -66.25 -11.5801 -34.358 -55.9783 -75.6981 -93.3877 -15.9352 -47.2823 -76.9615 -103.442 -124.053 
</DataArray>
</CellData>
<Points>
<DataArray NumberOfComponents="3" format="ascii" type="Float64">
-0.05 -0.05 0 -0.05 0 0 -0.05 -0.04 0 -0.05 -0.03 0 -0.05 -0.02 0 -0.05 -0.01 0 0 0 0 -0.04 0 0 -0.03 0 0 -0.02 0 0 -0.01 0 0 0 -0.05 0 0 -0.01 0 0 -0.02 0 0 -0.03 0 0 -0.04 0 -0.01 -0.05 0 -0.02 -0.05 0 -0.03 -0.05 0 -0.04 -0.05 0 -0.04 -0.04 0 -0.04 -0.03 0 -0.04 -0.02 0 -0.04 -0.01 0 -0.03 -0.04 0 -0.03 -0.03 0 -0.03 -0.02 0 -0.03 -0.01 0 -0.02 -0.04 0 -0.02 -0.03 0 -0.02 -0.02 0 -0.02 -0.01 0 -0.01 -0.04 0 -0.01 -0.03 0 -0.01 -0.02 0 -0.01 -0.01 0 -0.05 0.05 0 -0.05 0.01 0 -0.05 0.02 0 -0.05 0.03 0 -0.05 0.04 0 0 0.05 0 -0.04 0.05 0 -0.03 0.05 0 -0.02 0.05 0 -0.01 0.05 0 0 0.04 0 0 0.03 0 0 0.02 0 0 0.01 0 -0.04 0.01 0 -0.04 0.02 0 -0.04 0.03 0 -0.04 0.04 0 -0.03 0.01 0 -0.03 0.02 0 -0.03 0.03 0 -0.03 0.04 0 -0.02 0.01 0 -0.02 0.02 0 -0.02 0.03 0 -0.02 0.04 0 -0.01 0.01 0 -0.01 0.02 0 -0.01 0.03 0 -0.01 0.04 0 0.05 0 0 0.01 0 0 0.02 0 0 0.03 0 0 0.04 0 0 0.05 -0.05 0 0.05 -0.01 0 0.05 -0.02 0 0.05 -0.03 0 0.05 -0.04 0 0.04 -0.05 0 0.03 -0.05 0 0.02 -0.05 0 0.01 -0.05 0 0.01 -0.04 0 0.01 -0.03 0 0.01 -0.02 0 0.01 -0.01 0 0.02 -0.04 0 0.02 -0.03 0 0.02 -0.02 0 0.02 -0.01 0 0.03 -0.04 0 0.03 -0.03 0 0.03 -0.02 0 0.03 -0.01 0 0.04 -0.04 0 0.04 -0.03 0 0.04 -0.02 0 0.04 -0.01 0 0.05 0.05 0 0.01 0.05 0 0.02 0.05 0 0.03 0.05 0 0.04 0.05 0 0.05 0.04 0 0.05 0.03 0 0.05 0.02 0 0.05 0.01 0 0.01 0.01 0 0.01 0.02 0 0.01 0.03 0 0.01 0.04 0 0.02 0.01 0 0.02 0.02 0 0.02 0.03 0 0.02 0.04 0 0.03 0.01 0 0.03 0.02 0 0.03 0.03 0 0.03 0.04 0 0.04 0.01 0 0.04 0.02 0 0.04 0.03 0 0.04 0.04 0 
</DataArray>
</Points>
<Cells>
<DataArray Name="connectivity" format="ascii" type="Int64">
0 19 20 2 19 18 24 20 18 17 28 24 17 16 32 28 16 11 15 32 2 20 21 3 20 24 25 21 24 28 29 25 28 32 33 29 32 15 14 33 3 21 22 4 21 25 26 22 25 29 30 26 29 33 34 30 33 14 13 34 4 22 23 5 22 26 27 23 26 30 31 27 30 34 35 31 34 13 12 35 5 23 7 1 23 27 8 7 27 31 9 8 31 35 10 9 35 12 6 10 1 7 50 37 7 8 54 50 8 9 58 54 9 10 62 58 10 6 49 62 37 50 51 38 50 54 55 51 54 58 59 55 58 62 63 59 62 49 48 63 38 51 52 39 51 55 56 52 55 59 60 56 59 63 64 60 63 48 47 64 39 52 53 40 52 56 57 53 56 60 61 57 60 64 65 61 64 47 46 65 40 53 42 36 53 57 43 42 57 61 44 43 61 65 45 44 65 46 41 45 11 79 80 15 79 78 84 80 78 77 88 84 77 76 92 88 76 71 75 92 15 80 81 14 80 84 85 81 84 88 89 85 88 92 93 89 92 75 74 93 14 81 82 13 81 85 86 82 85 89 90 86 89 93 94 90 93 74 73 94 13 82 83 12 82 86 87 83 86 90 91 87 90 94 95 91 94 73 72 95 12 83 67 6 83 87 68 67 87 91 69 68 91 95 70 69 95 72 66 70 6 67 105 49 67 68 109 105 68 69 113 109 69 70 117 113 70 66 104 117 49 105 106 48 105 109 110 106 109 113 114 110 113 117 118 114 117 104 103 118 48 106 107 47 106 110 111 107 110 114 115 111 114 118 119 115 118 103 102 119 47 107 108 46 107 111 112 108 111 115 116 112 115 119 120 116 119 102 101 120 46 108 97 41 108 112 98 97 112 116 99 98 116 120 100 99 120 101 96 100 
</DataArray>
<DataArray Name="offsets" format="ascii" type="Int64">
4 8 12 16 20 24 28 32 36 40 44 48 52 56 60 64 68 72 76 80 84 88 92 96 100 104 108 112 116 120 124 128 132 136 140 144 148 152 156 160 164 168 172 176 180 184 188 192 196 200 204 208 212 216 220 224 228 232 236 240 244 248 252 256 260 264 268 272 276 280 284 288 292 296 300 304 308 312 316 320 324 328 332 336 340 344 348 352 356 360 364 368 372 376 380 384 388 392 396 400 
</DataArray>
<DataArray Name="types" format="ascii" type="Int8">
9 9 9 9 9 9 9 9 9 9 9 9 9 9 9 9 9 9 9 9 9 9 9 9 9 9 9 9 9 9 9 9 9 9 9 9 9 9 9 9 9 9 9 9 9 9 9 9 9 9 9 9 9 9 9 9 9 9 9 9 9 9 9 9 9 9 9 9 9 9 9 9 9 9 9 9 9 9 9 9 9 9 9 9 9 9 9 9 9 9 9 9 9 9 9 9 9 9 9 9 
</DataArray>
</Cells>
</Piece>
</UnstructuredGrid>
</VTKFile>
