<?xml version="1.0"?>
<VTKFile byte_order="LittleEndian" type="UnstructuredGrid" version="0.1">
<UnstructuredGrid>
<Piece NumberOfCells="100" NumberOfPoints="121">
<PointData>
<DataArray Name="Warping_X" format="ascii" type="Float64">
0.0379196 0.135727 0.0731215 0.10051 0.120075 0.131814 -0.0252712 0.0777673 0.0326876 0.000488103 -0.0188314 -0.123096 -0.0291839 -0.0409222 -0.0604863 -0.087877 -0.116655 -0.0973336 -0.0651305 -0.0200454 0.0151616 0.0425503 0.0621151 0.0738543 -0.0299168 -0.00252848 0.0170358 0.0287746 -0.0621167 -0.0347271 -0.0151632 -0.00342475 -0.0814369 -0.0540465 -0.0344825 -0.0227441 0.0379196 0.131814 0.120075 0.10051 0.0731215 -0.123096 -0.0200454 -0.0651305 -0.0973336 -0.116655 -0.087877 -0.0604863 -0.0409222 -0.0291839 0.0738543 0.0621151 0.0425503 0.0151616 0.0287746 0.0170358 -0.00252848 -0.0299168 -0.00342475 -0.0151632 -0.0347271 -0.0621167 -0.0227441 -0.0344825 -0.0540465 -0.0814369 0.135727 -0.0188314 0.000488103 0.0326876 0.0777673 0.0379196 0.131814 0.120075 0.10051 0.0731215 -0.0200454 -0.0651305 -0.0973336 -0.116655 -0.0814369 -0.0540465 -0.0344825 -0.0227441 -0.0621167 -0.0347271 -0.0151632 -0.00342475 -0.0299168 -0.00252848 0.0170358 0.0287746 0.0151616 0.0425503 0.0621151 0.0738543 0.0379196 -0.116655 -0.0973336 -0.0651305 -0.0200454 0.0731215 0.10051 0.120075 0.131814 -0.0227441 -0.0344825 -0.0540465 -0.0814369 -0.00342475 -0.0151632 -0.0347271 -0.0621167 0.0287746 0.0170358 -0.00252848 -0.0299168 0.0738543 0.0621151 0.0425503 0.0151616 
</DataArray>
<DataArray Name="Warping_Y" format="ascii" type="Float64">
0.195624 3.46638e-17 0.156509 0.117385 0.0782578 0.0391291 -2.49659e-17 3.50575e-17 7.66133e-18 -5.35454e-18 -1.70465e-17 4.85024e-17 -8.18492e-18 9.97818e-18 3.18394e-17 5.10377e-17 0.0391333 0.0782658 0.117396 0.156522 0.125215 0.0939101 0.0626068 0.0313034 0.0939162 0.0704357 0.0469565 0.0234781 0.0626124 0.0469587 0.0313053 0.0156525 0.0313066 0.0234798 0.015653 0.00782639 -0.195624 -0.0391291 -0.0782578 -0.117385 -0.156509 -7.00165e-17 -0.156522 -0.117396 -0.0782658 -0.0391333 -7.35989e-17 -6.94099e-17 -5.85436e-17 -4.38998e-17 -0.0313034 -0.0626068 -0.0939101 -0.125215 -0.0234781 -0.0469565 -0.0704357 -0.0939162 -0.0156525 -0.0313053 -0.0469587 -0.0626124 -0.00782639 -0.015653 -0.0234798 -0.0313066 -7.0168e-19 -3.52274e-17 -4.36525e-17 -3.99633e-17 -5.17496e-17 -0.195624 -0.0391291 -0.0782578 -0.117385 -0.156509 -0.156522 -0.117396 -0.0782658 -0.0391333 -0.0313066 -0.0234798 -0.015653 -0.00782639 -0.0626124 -0.0469587 -0.0313053 -0.0156525 -0.0939162 -0.0704357 -0.0469565 -0.0234781 -0.125215 -0.0939101 -0.0626068 -0.0313034 0.195624 0.0391333 0.0782658 0.117396 0.156522 0.156509 0.117385 0.0782578 0.0391291 0.00782639 0.015653 0.0234798 0.0313066 0.0156525 0.0313053 0.0469587 0.0626124 0.0234781 0.0469565 0.0704357 0.0939162 0.0313034 0.0626068 0.0939101 0.125215 
</DataArray>
<DataArray Name="Warping_Z" format="ascii" type="Float64">
0 0 0 0 0 0 0 0 0 0 0 0 0 0 0 0 0 0 0 0 0 0 0 0 0 0 0 0 0 0 0 0 0 0 0 0 0 0 0 0 0 0 0 0 0 0 0 0 0 0 0 0 0 0 0 0 0 0 0 0 0 0 0 0 0 0 0 0 0 0 0 0 0 0 0 0 0 0 0 0 0 0 0 0 0 0 0 0 0 0 0 0 0 0 0 0 0 0 0 0 0 0 0 0 0 0 0 0 0 0 0 0 0 0 0 0 0 0 0 0 0 
</DataArray>
</PointData>
<CellData>
<DataArray Name="MaterialId" format="ascii" type="Float64">
3 3 3 3 3 3 3 3 3 3 3 3 3 3 3 3 3 3 3 3 3 3 3 3 3 3 3 3 3 3 3 3 3 3 3 3 3 3 3 3 3 3 3 3 3 3 3 3 3 3 3 3 3 3 3 3 3 3 3 3 3 3 3 3 3 3 3 3 3 3 3 3 3 3 3 3 3 3 3 3 3 3 3 3 3 3 3 3 3 3 3 3 3 3 3 3 3 3 3 3 
</DataArray>
<DataArray Name="FiberAngle" format="ascii" type="Float64">
22.5 22.5 22.5 22.5 22.5 22.5 22.5 22.5 22.5 22.5 22.5 22.5 22.5 22.5 22.5 22.5 22.5 22.5 22.5 22.5 22.5 22.5 22.5 22.5 22.5 22.5 22.5 22.5 22.5 22.5 22.5 22.5 22.5 22.5 22.5 22.5 22.5 22.5 22.5 22.5 22.5 22.5 22.5 22.5 22.5 22.5 22.5 22.5 22.5 22.5 22.5 22.5 22.5 22.5 22.5 22.5 22.5 22.5 22.5 22.5 22.5 22.5 22.5 22.5 22.5 22.5 22.5 22.5 22.5 22.5 22.5 22.5 22.5 22.5 22.5 22.5 22.5 22.5 22.5 22.5 22.5 22.5 22.5 22.5 22.5 22.5 22.5 22.5 22.5 22.5 22.5 22.5 22.5 22.5 22.5 22.5 22.5 22.5 22.5 22.5 
</DataArray>
<DataArray Name="Strain_11" format="ascii" type="Float64">
-5.79625 -4.50817 -3.22015 -1.93209 -0.644031 -5.796 -4.50786 -3.21993 -1.93198 -0.643995 -5.79601 -4.50791 -3.21988 -1.93193 -0.643976 -5.79601 -4.50795 -3.21992 -1.93193 -0.643974 -5.796 -4.50797 -3.21994 -1.93194 -0.643977 -5.796 -4.50797 -3.21994 -1.93194 -0.643977 -5.79601 -4.50795 -3.21992 -1.93193 -0.643974 -5.79601 -4.50791 -3.21988 -1.93193 -0.643976 -5.796 -4.50786 -3.21993 -1.93198 -0.643995 -5.79625 -4.50817 -3.22015 -1.93209 -0.644031 0.644031 1.93209 3.22015 4.50817 5.79625 0.643995 1.93198 3.21993 4.50786 5.796 0.643976 1.93193 3.21988 4.50791 5.79601 0.643974 1.93193 3.21992 4.50795 5.79601 0.643977 1.93194 3.21994 4.50797 5.796 0.643977 1.93194 3.21994 4.50797 5.796 0.643974 1.93193 3.21992 4.50795 5.79601 0.643976 1.93193 3.21988 4.50791 5.79601 0.643995 1.93198 3.21993 4.50786 5.796 0.644031 1.93209 3.22015 4.50817 5.79625 
</DataArray>
<DataArray Name="Strain_22" format="ascii" type="Float64">
-3.52117 -2.73939 -1.95667 -1.174 -0.391334 -3.5214 -2.73925 -1.95671 -1.17403 -0.391343 -3.52153 -2.73913 -1.95663 -1.17401 -0.39134 -3.5216 -2.73909 -1.95656 -1.17397 -0.391329 -3.52163 -2.73908 -1.95653 -1.17394 -0.39132 -3.52163 -2.73908 -1.95653 -1.17394 -0.39132 -3.5216 -2.73909 -1.95656 -1.17397 -0.391329 -3.52153 -2.73913 -1.95663 -1.17401 -0.39134 -3.5214 -2.73925 -1.95671 -1.17403 -0.391343 -3.52117 -2.73939 -1.95667 -1.174 -0.391334 0.391334 1.174 1.95667 2.73939 3.52117 0.391343 1.17403 1.95671 2.73925 3.5214 0.39134 1.17401 1.95663 2.73913 3.52153 0.391329 1.17397 1.95656 2.73909 3.5216 0.39132 1.17394 1.95653 2.73908 3.52163 0.39132 1.17394 1.95653 2.73908 3.52163 0.391329 1.17397 1.95656 2.73909 3.5216 0.39134 1.17401 1.95663 2.73913 3.52153 0.391343 1.17403 1.95671 2.73925 3.5214 0.391334 1.174 1.95667 2.73939 3.52117 
</DataArray>
<DataArray Name="Strain_12" format="ascii" type="Float64">
0.000649742 -0.000188338 -0.000172051 -0.000149881 -0.000139472 0.000434652 0.000211691 -0.000146763 -0.000237203 -0.000262377 0.000184061 0.000214316 -4.50587e-07 -0.000167056 -0.00023087 7.53985e-05 0.000114362 2.8271e-05 -7.91593e-05 -0.000138872 2.04117e-05 3.43246e-05 1.1807e-05 -2.23055e-05 -4.42378e-05 -2.04117e-05 -3.43246e-05 -1.1807e-05 2.23055e-05 4.42378e-05 -7.53985e-05 -0.000114362 -2.8271e-05 7.91593e-05 0.000138872 -0.000184061 -0.000214316 4.50587e-07 0.000167056 0.00023087 -0.000434652 -0.000211691 0.000146763 0.000237203 0.000262377 -0.000649742 0.000188338 0.000172051 0.000149881 0.000139472 -0.000139472 -0.000149881 -0.000172051 -0.000188338 0.000649742 -0.000262377 -0.000237203 -0.000146763 0.000211691 0.000434652 -0.00023087 -0.000167056 -4.50587e-07 0.000214316 0.000184061 -0.000138872 -7.91593e-05 2.8271e-05 0.000114362 7.53985e-05 -4.42378e-05 -2.23055e-05 1.1807e-05 3.43246e-05 2.04117e-05 4.42378e-05 2.23055e-05 -1.1807e-05 -3.43246e-05 -2.04117e-05 0.000138872 7.91593e-05 -2.8271e-05 -0.000114362 -7.53985e-05 0.00023087 0.000167056 4.50587e-07 -0.000214316 -0.000184061 0.000262377 0.000237203 0.000146763 -0.000211691 -0.000434652 0.000139472 0.000149881 0.000172051 0.000188338 -0.000649742 
</DataArray>
<DataArray Name="Strain_13" format="ascii" type="Float64">
-19.215 -14.945 -10.675 -6.405 -2.135 -19.215 -14.945 -10.675 -6.405 -2.135 -19.215 -14.945 -10.675 -6.40501 -2.135 -19.215 -14.945 -10.675 -6.40501 -2.135 -19.215 -14.945 -10.675 -6.40501 -2.135 -19.215 -14.945 -10.675 -6.40501 -2.135 -19.215 -14.945 -10.675 -6.40501 -2.135 -19.215 -14.945 -10.675 -6.40501 -2.135 -19.215 -14.945 -10.675 -6.405 -2.135 -19.215 -14.945 -10.675 -6.405 -2.135 2.135 6.405 10.675 14.945 19.215 2.135 6.405 10.675 14.945 19.215 2.135 6.40501 10.675 14.945 19.215 2.135 6.40501 10.675 14.945 19.215 2.135 6.40501 10.675 14.945 19.215 2.135 6.40501 10.675 14.945 19.215 2.135 6.40501 10.675 14.945 19.215 2.135 6.40501 10.675 14.945 19.215 2.135 6.405 10.675 14.945 19.215 2.135 6.405 10.675 14.945 19.215 
</DataArray>
<DataArray Name="Strain_23" format="ascii" type="Float64">
2.45377e-05 5.774e-08 -8.23131e-06 -8.31453e-06 -8.04962e-06 1.37173e-05 5.85126e-06 -1.42192e-07 -8.287e-06 -1.11394e-05 1.29884e-06 7.84992e-07 2.57981e-06 -5.7828e-07 -4.08536e-06 -1.35018e-06 -1.86179e-06 5.81523e-07 1.65405e-06 9.76409e-07 -7.64376e-07 -9.28007e-07 -4.96073e-08 7.58975e-07 9.83015e-07 7.64376e-07 9.28007e-07 4.96073e-08 -7.58975e-07 -9.83015e-07 1.35018e-06 1.86179e-06 -5.81523e-07 -1.65405e-06 -9.76409e-07 -1.29884e-06 -7.84992e-07 -2.57981e-06 5.7828e-07 4.08536e-06 -1.37173e-05 -5.85126e-06 1.42192e-07 8.287e-06 1.11394e-05 -2.45377e-05 -5.774e-08 8.23131e-06 8.31453e-06 8.04962e-06 -8.04962e-06 -8.31453e-06 -8.23131e-06 5.774e-08 2.45377e-05 -1.11394e-05 -8.287e-06 -1.42192e-07 5.85126e-06 1.37173e-05 -4.08536e-06 -5.7828e-07 2.57981e-06 7.84992e-07 1.29884e-06 9.76409e-07 1.65405e-06 5.81523e-07 -1.86179e-06 -1.35018e-06 9.83015e-07 7.58975e-07 -4.96073e-08 -9.28007e-07 -7.64376e-07 -9.83015e-07 -7.58975e-07 4.96073e-08 9.28007e-07 7.64376e-07 -9.76409e-07 -1.65405e-06 -5.81523e-07 1.86179e-06 1.35018e-06 4.08536e-06 5.7828e-07 -2.57981e-06 -7.84992e-07 -1.29884e-06 1.11394e-05 8.287e-06 1.42192e-07 -5.85126e-06 -1.37173e-05 8.04962e-06 8.31453e-06 8.23131e-06 -5.774e-08 -2.45377e-05 
</DataArray>
<DataArray Name="Strain_33" format="ascii" type="Float64">
0.045 0.035 0.025 0.015 0.005 0.045 0.035 0.025 0.015 0.005 0.045 0.035 0.025 0.015 0.005 0.045 0.035 0.025 0.015 0.005 0.045 0.035 0.025 0.015 0.005 0.045 0.035 0.025 0.015 0.005 0.045 0.035 0.025 0.015 0.005 0.045 0.035 0.025 0.015 0.005 0.045 0.035 0.025 0.015 0.005 0.045 0.035 0.025 0.015 0.005 -0.005 -0.015 -0.025 -0.035 -0.045 -0.005 -0.015 -0.025 -0.035 -0.045 -0.005 -0.015 -0.025 -0.035 -0.045 -0.005 -0.015 -0.025 -0.035 -0.045 -0.005 -0.015 -0.025 -0.035 -0.045 -0.005 -0.015 -0.025 -0.035 -0.045 -0.005 -0.015 -0.025 -0.035 -0.045 -0.005 -0.015 -0.025 -0.035 -0.045 -0.005 -0.015 -0.025 -0.035 -0.045 -0.005 -0.015 -0.025 -0.035 -0.045 
</DataArray>
<DataArray Name="Stress_11" format="ascii" type="Float64">
-1412.19 -1098.39 -784.568 -470.741 -156.914 -1412.16 -1098.34 -784.538 -470.725 -156.909 -1412.17 -1098.34 -784.528 -470.718 -156.906 -1412.17 -1098.35 -784.531 -470.717 -156.905 -1412.17 -1098.35 -784.533 -470.718 -156.906 -1412.17 -1098.35 -784.533 -470.718 -156.906 -1412.17 -1098.35 -784.531 -470.717 -156.905 -1412.17 -1098.34 -784.528 -470.718 -156.906 -1412.16 -1098.34 -784.538 -470.725 -156.909 -1412.19 -1098.39 -784.568 -470.741 -156.914 156.914 470.741 784.568 1098.39 1412.19 156.909 470.725 784.538 1098.34 1412.16 156.906 470.718 784.528 1098.34 1412.17 156.905 470.717 784.531 1098.35 1412.17 156.906 470.718 784.533 1098.35 1412.17 156.906 470.718 784.533 1098.35 1412.17 156.905 470.717 784.531 1098.35 1412.17 156.906 470.718 784.528 1098.34 1412.17 156.909 470.725 784.538 1098.34 1412.16 156.914 470.741 784.568 1098.39 1412.19 
</DataArray>
<DataArray Name="Stress_22" format="ascii" type="Float64">
-634.703 -493.749 -352.674 -211.605 -70.5349 -634.725 -493.72 -352.672 -211.604 -70.5348 -634.742 -493.706 -352.66 -211.6 -70.5337 -634.751 -493.702 -352.652 -211.595 -70.5322 -634.755 -493.701 -352.648 -211.592 -70.5311 -634.755 -493.701 -352.648 -211.592 -70.5311 -634.751 -493.702 -352.652 -211.595 -70.5322 -634.742 -493.706 -352.66 -211.6 -70.5337 -634.725 -493.72 -352.672 -211.604 -70.5348 -634.703 -493.749 -352.674 -211.605 -70.5349 70.5349 211.605 352.674 493.749 634.703 70.5348 211.604 352.672 493.72 634.725 70.5337 211.6 352.66 493.706 634.742 70.5322 211.595 352.652 493.702 634.751 70.5311 211.592 352.648 493.701 634.755 70.5311 211.592 352.648 493.701 634.755 70.5322 211.595 352.652 493.702 634.751 70.5337 211.6 352.66 493.706 634.742 70.5348 211.604 352.672 493.72 634.725 70.5349 211.605 352.674 493.749 634.703 
</DataArray>
<DataArray Name="Stress_12" format="ascii" type="Float64">
0.0335254 -0.00969251 -0.00888364 -0.00774292 -0.00720631 0.0224176 0.0109152 -0.00755358 -0.0122368 -0.0135425 0.0094772 0.0110324 -1.40682e-05 -0.00859951 -0.011896 0.00387557 0.00587897 0.00145701 -0.00406804 -0.00714351 0.00104778 0.00176321 0.000607467 -0.00114526 -0.0022732 -0.00104778 -0.00176321 -0.000607467 0.00114526 0.0022732 -0.00387557 -0.00587897 -0.00145701 0.00406804 0.00714351 -0.0094772 -0.0110324 1.40682e-05 0.00859951 0.011896 -0.0224176 -0.0109152 0.00755358 0.0122368 0.0135425 -0.0335254 0.00969251 0.00888364 0.00774292 0.00720631 -0.00720631 -0.00774292 -0.00888364 -0.00969251 0.0335254 -0.0135425 -0.0122368 -0.00755358 0.0109152 0.0224176 -0.011896 -0.00859951 -1.40682e-05 0.0110324 0.0094772 -0.00714351 -0.00406804 0.00145701 0.00587897 0.00387557 -0.0022732 -0.00114526 0.000607467 0.00176321 0.00104778 0.0022732 0.00114526 -0.000607467 -0.00176321 -0.00104778 0.00714351 0.00406804 -0.00145701 -0.00587897 -0.00387557 0.011896 0.00859951 1.40682e-05 -0.0110324 -0.0094772 0.0135425 0.0122368 0.00755358 -0.0109152 -0.0224176 0.00720631 0.00774292 0.00888364 0.00969251 -0.0335254 
</DataArray>
<DataArray Name="Stress_13" format="ascii" type="Float64">
-2049.56 -1594.1 -1138.64 -683.187 -227.729 -2049.55 -1594.1 -1138.64 -683.184 -227.728 -2049.55 -1594.1 -1138.64 -683.184 -227.728 -2049.55 -1594.1 -1138.64 -683.184 -227.728 -2049.55 -1594.1 -1138.64 -683.184 -227.728 -2049.55 -1594.1 -1138.64 -683.184 -227.728 -2049.55 -1594.1 -1138.64 -683.184 -227.728 -2049.55 -1594.1 -1138.64 -683.184 -227.728 -2049.55 -1594.1 -1138.64 -683.184 -227.728 -2049.56 -1594.1 -1138.64 -683.187 -227.729 227.729 683.187 1138.64 1594.1 2049.56 227.728 683.184 1138.64 1594.1 2049.55 227.728 683.184 1138.64 1594.1 2049.55 227.728 683.184 1138.64 1594.1 2049.55 227.728 683.184 1138.64 1594.1 2049.55 227.728 683.184 1138.64 1594.1 2049.55 227.728 683.184 1138.64 1594.1 2049.55 227.728 683.184 1138.64 1594.1 2049.55 227.728 683.184 1138.64 1594.1 2049.55 227.729 683.187 1138.64 1594.1 2049.56 
</DataArray>
<DataArray Name="Stress_23" format="ascii" type="Float64">
0.00373351 -0.000662495 -0.00109012 -0.0010166 -0.000964297 0.00233968 0.00109095 -0.000527208 -0.00132372 -0.00157969 0.000726782 0.00080367 0.000149417 -0.000624483 -0.00105539 0.00018754 0.000295348 0.000133993 -0.00018305 -0.000433831 2.74232e-05 6.70343e-05 3.88403e-05 -3.44348e-05 -9.8863e-05 -2.74232e-05 -6.70343e-05 -3.88403e-05 3.44348e-05 9.8863e-05 -0.00018754 -0.000295348 -0.000133993 0.00018305 0.000433831 -0.000726782 -0.00080367 -0.000149417 0.000624483 0.00105539 -0.00233968 -0.00109095 0.000527208 0.00132372 0.00157969 -0.00373351 0.000662495 0.00109012 0.0010166 0.000964297 -0.000964297 -0.0010166 -0.00109012 -0.000662495 0.00373351 -0.00157969 -0.00132372 -0.000527208 0.00109095 0.00233968 -0.00105539 -0.000624483 0.000149417 0.00080367 0.000726782 -0.000433831 -0.00018305 0.000133993 0.000295348 0.00018754 -9.8863e-05 -3.44348e-05 3.88403e-05 6.70343e-05 2.74232e-05 9.8863e-05 3.44348e-05 -3.88403e-05 -6.70343e-05 -2.74232e-05 0.000433831 0.00018305 -0.000133993 -0.000295348 -0.00018754 0.00105539 0.000624483 -0.000149417 -0.00080367 -0.000726782 0.00157969 0.00132372 0.000527208 -0.00109095 -0.00233968 0.000964297 0.0010166 0.00109012 0.000662495 -0.00373351 
</DataArray>
<DataArray Name="Stress_33" format="ascii" type="Float64">
-2504.56 -1948.01 -1391.44 -834.864 -278.288 -2504.55 -1947.99 -1391.43 -834.856 -278.286 -2504.55 -1947.99 -1391.42 -834.853 -278.284 -2504.56 -1947.99 -1391.42 -834.852 -278.284 -2504.56 -1947.99 -1391.42 -834.852 -278.284 -2504.56 -1947.99 -1391.42 -834.852 -278.284 -2504.56 -1947.99 -1391.42 -834.852 -278.284 -2504.55 -1947.99 -1391.42 -834.853 -278.284 -2504.55 -1947.99 -1391.43 -834.856 -278.286 -2504.56 -1948.01 -1391.44 -834.864 -278.288 278.288 834.864 1391.44 1948.01 2504.56 278.286 834.856 1391.43 1947.99 2504.55 278.284 834.853 1391.42 1947.99 2504.55 278.284 834.852 1391.42 1947.99 2504.56 278.284 834.852 1391.42 1947.99 2504.56 278.284 834.852 1391.42 1947.99 2504.56 278.284 834.852 1391.42 1947.99 2504.56 278.284 834.853 1391.42 1947.99 2504.55 278.286 834.856 1391.43 1947.99 2504.55 278.288 834.864 1391.44 1948.01 2504.56 
</DataArray>
</CellData>
<Points>
<DataArray NumberOfComponents="3" format="ascii" type="Float64">
-0.05 -0.05 0 -0.05 0 0 -0.05 -0.04 0 -0.05 -0.03 0 -0.05 -0.02 0 -0.05 -0.01 0 0 0 0 -0.04 0 0 -0.03 0 0 -0.02 0 0 -0.01 0 0 0 -0.05 0 0 -0.01 0 0 -0.02 0 0 -0.03 0 0 -0.04 0 -0.01 -0.05 0 -0.02 -0.05 0 -0.03 -0.05 0 -0.04 -0.05 0 -0.04 -0.04 0 -0.04 -0.03 0 -0.04 -0.02 0 -0.04 -0.01 0 -0.03 -0.04 0 -0.03 -0.03 0 -0.03 -0.02 0 -0.03 -0.01 0 -0.02 -0.04 0 -0.02 -0.03 0 -0.02 -0.02 0 -0.02 -0.01 0 -0.01 -0.04 0 -0.01 -0.03 0 -0.01 -0.02 0 -0.01 -0.01 0 -0.05 0.05 0 -0.05 0.01 0 -0.05 0.02 0 -0.05 0.03 0 -0.05 0.04 0 0 0.05 0 -0.04 0.05 0 -0.03 0.05 0 -0.02 0.05 0 -0.01 0.05 0 0 0.04 0 0 0.03 0 0 0.02 0 0 0.01 0 -0.04 0.01 0 -0.04 0.02 0 -0.04 0.03 0 -0.04 0.04 0 -0.03 0.01 0 -0.03 0.02 0 -0.03 0.03 0 -0.03 0.04 0 -0.02 0.01 0 -0.02 0.02 0 -0.02 0.03 0 -0.02 0.04 0 -0.01 0.01 0 -0.01 0.02 0 -0.01 0.03 0 -0.01 0.04 0 0.05 0 0 0.01 0 0 0.02 0 0 0.03 0 0 0.04 0 0 0.05 -0.05 0 0.05 -0.01 0 0.05 -0.02 0 0.05 -0.03 0 0.05 -0.04 0 0.04 -0.05 0 0.03 -0.05 0 0.02 -0.05 0 0.01 -0.05 0 0.01 -0.04 0 0.01 -0.03 0 0.01 -0.02 0 0.01 -0.01 0 0.02 -0.04 0 0.02 -0.03 0 0.02 -0.02 0 0.02 -0.01 0 0.03 -0.04 0 0.03 -0.03 0 0.03 -0.02 0 0.03 -0.01 0 0.04 -0.04 0 0.04 -0.03 0 0.04 -0.02 0 0.04 -0.01 0 0.05 0.05 0 0.01 0.05 0 0.02 0.05 0 0.03 0.05 0 0.04 0.05 0 0.05 0.04 0 0.05 0.03 0 0.05 0.02 0 0.05 0.01 0 0.01 0.01 0 0.01 0.02 0 0.01 0.03 0 0.01 0.04 0 0.02 0.01 0 0.02 0.02 0 0.02 0.03 0 0.02 0.04 0 0.03 0.01 0 0.03 0.02 0 0.03 0.03 0 0.03 0.04 0 0.04 0.01 0 0.04 0.02 0 0.04 0.03 0 0.04 0.04 0 
</DataArray>
</Points>
<Cells>
<DataArray Name="connectivity" format="ascii" type="Int64">
0 19 20 2 19 18 24 20 18 17 28 24 17 16 32 28 16 11 15 32 2 20 21 3 20 24 25 21 24 28 29 25 28 32 33 29 32 15 14 33 3 21 22 4 21 25 26 22 25 29 30 26 29 33 34 30 33 14 13 34 4 22 23 5 22 26 27 23 26 30 31 27 30 34 35 31 34 13 12 35 5 23 7 1 23 27 8 7 27 31 9 8 31 35 10 9 35 12 6 10 1 7 50 37 7 8 54 50 8 9 58 54 9 10 62 58 10 6 49 62 37 50 51 38 50 54 55 51 54 58 59 55 58 62 63 59 62 49 48 63 38 51 52 39 51 55 56 52 55 59 60 56 59 63 64 60 63 48 47 64 39 52 53 40 52 56 57 53 56 60 61 57 60 64 65 61 64 47 46 65 40 53 42 36 53 57 43 42 57 61 44 43 61 65 45 44 65 46 41 45 11 79 80 15 79 78 84 80 78 77 88 84 77 76 92 88 76 71 75 92 15 80 81 14 80 84 85 81 84 88 89 85 88 92 93 89 92 75 74 93 14 81 82 13 81 85 86 82 85 89 90 86 89 93 94 90 93 74 73 94 13 82 83 12 82 86 87 83 86 90 91 87 90 94 95 91 94 73 72 95 12 83 67 6 83 87 68 67 87 91 69 68 91 95 70 69 95 72 66 70 6 67 105 49 67 68 109 105 68 69 113 109 69 70 117 113 70 66 104 117 49 105 106 48 105 109 110 106 109 113 114 110 113 117 118 114 117 104 103 118 48 106 107 47 106 110 111 107 110 114 115 111 114 118 119 115 118 103 102 119 47 107 108 46 107 111 112 108 111 115 116 112 115 119 120 116 119 102 101 120 46 108 97 41 108 112 98 97 112 116 99 98 116 120 100 99 120 101 96 100 
</DataArray>
<DataArray Name="offsets" format="ascii" type="Int64">
4 8 12 16 20 24 28 32 36 40 44 48 52 56 60 64 68 72 76 80 84 88 92 96 100 104 108 112 116 120 124 128 132 136 140 144 148 152 156 160 164 168 172 176 180 184 188 192 196 200 204 208 212 216 220 224 228 232 236 240 244 248 252 256 260 264 268 272 276 280 284 288 292 296 300 304 308 312 316 320 324 328 332 336 340 344 348 352 356 360 364 368 372 376 380 384 388 392 396 400 
</DataArray>
<DataArray Name="types" format="ascii" type="Int8">
9 9 9 9 9 9 9 9 9 9 9 9 9 9 9 9 9 9 9 9 9 9 9 9 9 9 9 9 9 9 9 9 9 9 9 9 9 9 9 9 9 9 9 9 9 9 9 9 9 9 9 9 9 9 9 9 9 9 9 9 9 9 9 9 9 9 9 9 9 9 9 9 9 9 9 9 9 9 9 9 9 9 9 9 9 9 9 9 9 9 9 9 9 9 9 9 9 9 9 9 
</DataArray>
</Cells>
</Piece>
</UnstructuredGrid>
</VTKFile>
