<?xml version="1.0"?>
<VTKFile byte_order="LittleEndian" type="UnstructuredGrid" version="0.1">
<UnstructuredGrid>
<Piece NumberOfCells="100" NumberOfPoints="121">
<PointData>
<DataArray Name="Warping_X" format="ascii" type="Float64">
0.01 0.01 0.01 0.01 0.01 0.01 4.18784e-18 0.008 0.006 0.004 0.002 -2.14982e-18 3.98016e-18 1.85019e-18 -1.34103e-18 -3.31532e-18 0.002 0.004 0.006 0.008 0.008 0.008 0.008 0.008 0.006 0.006 0.006 0.006 0.004 0.004 0.004 0.004 0.002 0.002 0.002 0.002 0.01 0.01 0.01 0.01 0.01 -4.77141e-18 0.008 0.006 0.004 0.002 -3.98654e-18 -1.79679e-18 1.10736e-18 3.38428e-18 0.008 0.008 0.008 0.008 0.006 0.006 0.006 0.006 0.004 0.004 0.004 0.004 0.002 0.002 0.002 0.002 -0.01 -0.002 -0.004 -0.006 -0.008 -0.01 -0.01 -0.01 -0.01 -0.01 -0.008 -0.006 -0.004 -0.002 -0.002 -0.002 -0.002 -0.002 -0.004 -0.004 -0.004 -0.004 -0.006 -0.006 -0.006 -0.006 -0.008 -0.008 -0.008 -0.008 -0.01 -0.002 -0.004 -0.006 -0.008 -0.01 -0.01 -0.01 -0.01 -0.002 -0.002 -0.002 -0.002 -0.004 -0.004 -0.004 -0.004 -0.006 -0.006 -0.006 -0.006 -0.008 -0.008 -0.008 -0.008 
</DataArray>
<DataArray Name="Warping_Y" format="ascii" type="Float64">
0.01 3.96662e-18 0.008 0.006 0.004 0.002 -5.3606e-18 3.04733e-18 -2.92768e-19 -2.58286e-18 -4.46314e-18 0.01 0.002 0.004 0.006 0.008 0.01 0.01 0.01 0.01 0.008 0.006 0.004 0.002 0.008 0.006 0.004 0.002 0.008 0.006 0.004 0.002 0.008 0.006 0.004 0.002 -0.01 -0.002 -0.004 -0.006 -0.008 -0.01 -0.01 -0.01 -0.01 -0.01 -0.008 -0.006 -0.004 -0.002 -0.002 -0.004 -0.006 -0.008 -0.002 -0.004 -0.006 -0.008 -0.002 -0.004 -0.006 -0.008 -0.002 -0.004 -0.006 -0.008 6.69897e-18 -4.7833e-18 -3.23723e-18 5.52668e-19 4.75413e-18 0.01 0.002 0.004 0.006 0.008 0.01 0.01 0.01 0.01 0.008 0.006 0.004 0.002 0.008 0.006 0.004 0.002 0.008 0.006 0.004 0.002 0.008 0.006 0.004 0.002 -0.01 -0.01 -0.01 -0.01 -0.01 -0.008 -0.006 -0.004 -0.002 -0.002 -0.004 -0.006 -0.008 -0.002 -0.004 -0.006 -0.008 -0.002 -0.004 -0.006 -0.008 -0.002 -0.004 -0.006 -0.008 
</DataArray>
<DataArray Name="Warping_Z" format="ascii" type="Float64">
0 0 0 0 0 0 0 0 0 0 0 0 0 0 0 0 0 0 0 0 0 0 0 0 0 0 0 0 0 0 0 0 0 0 0 0 0 0 0 0 0 0 0 0 0 0 0 0 0 0 0 0 0 0 0 0 0 0 0 0 0 0 0 0 0 0 0 0 0 0 0 0 0 0 0 0 0 0 0 0 0 0 0 0 0 0 0 0 0 0 0 0 0 0 0 0 0 0 0 0 0 0 0 0 0 0 0 0 0 0 0 0 0 0 0 0 0 0 0 0 0 
</DataArray>
</PointData>
<CellData>
<DataArray Name="MaterialId" format="ascii" type="Float64">
1 1 1 1 1 1 1 1 1 1 1 1 1 1 1 1 1 1 1 1 1 1 1 1 1 1 1 1 1 1 1 1 1 1 1 1 1 1 1 1 1 1 1 1 1 1 1 1 1 1 2 2 2 2 2 2 2 2 2 2 2 2 2 2 2 2 2 2 2 2 2 2 2 2 2 2 2 2 2 2 2 2 2 2 2 2 2 2 2 2 2 2 2 2 2 2 2 2 2 2 
</DataArray>
<DataArray Name="FiberAngle" format="ascii" type="Float64">
0 0 0 0 0 0 0 0 0 0 0 0 0 0 0 0 0 0 0 0 0 0 0 0 0 0 0 0 0 0 0 0 0 0 0 0 0 0 0 0 0 0 0 0 0 0 0 0 0 0 0 0 0 0 0 0 0 0 0 0 0 0 0 0 0 0 0 0 0 0 0 0 0 0 0 0 0 0 0 0 0 0 0 0 0 0 0 0 0 0 0 0 0 0 0 0 0 0 0 0 
</DataArray>
<DataArray Name="Strain_11" format="ascii" type="Float64">
-0.2 -0.2 -0.2 -0.2 -0.2 -0.2 -0.2 -0.2 -0.2 -0.2 -0.2 -0.2 -0.2 -0.2 -0.2 -0.2 -0.2 -0.2 -0.2 -0.2 -0.2 -0.2 -0.2 -0.2 -0.2 -0.2 -0.2 -0.2 -0.2 -0.2 -0.2 -0.2 -0.2 -0.2 -0.2 -0.2 -0.2 -0.2 -0.2 -0.2 -0.2 -0.2 -0.2 -0.2 -0.2 -0.2 -0.2 -0.2 -0.2 -0.2 -0.2 -0.2 -0.2 -0.2 -0.2 -0.2 -0.2 -0.2 -0.2 -0.2 -0.2 -0.2 -0.2 -0.2 -0.2 -0.2 -0.2 -0.2 -0.2 -0.2 -0.2 -0.2 -0.2 -0.2 -0.2 -0.2 -0.2 -0.2 -0.2 -0.2 -0.2 -0.2 -0.2 -0.2 -0.2 -0.2 -0.2 -0.2 -0.2 -0.2 -0.2 -0.2 -0.2 -0.2 -0.2 -0.2 -0.2 -0.2 -0.2 -0.2 
</DataArray>
<DataArray Name="Strain_22" format="ascii" type="Float64">
-0.2 -0.2 -0.2 -0.2 -0.2 -0.2 -0.2 -0.2 -0.2 -0.2 -0.2 -0.2 -0.2 -0.2 -0.2 -0.2 -0.2 -0.2 -0.2 -0.2 -0.2 -0.2 -0.2 -0.2 -0.2 -0.2 -0.2 -0.2 -0.2 -0.2 -0.2 -0.2 -0.2 -0.2 -0.2 -0.2 -0.2 -0.2 -0.2 -0.2 -0.2 -0.2 -0.2 -0.2 -0.2 -0.2 -0.2 -0.2 -0.2 -0.2 -0.2 -0.2 -0.2 -0.2 -0.2 -0.2 -0.2 -0.2 -0.2 -0.2 -0.2 -0.2 -0.2 -0.2 -0.2 -0.2 -0.2 -0.2 -0.2 -0.2 -0.2 -0.2 -0.2 -0.2 -0.2 -0.2 -0.2 -0.2 -0.2 -0.2 -0.2 -0.2 -0.2 -0.2 -0.2 -0.2 -0.2 -0.2 -0.2 -0.2 -0.2 -0.2 -0.2 -0.2 -0.2 -0.2 -0.2 -0.2 -0.2 -0.2 
</DataArray>
<DataArray Name="Strain_12" format="ascii" type="Float64">
-2.90101e-16 2.23377e-16 -3.03174e-16 1.56125e-16 5.93275e-16 -2.67564e-17 4.31211e-16 -4.46865e-18 4.7011e-16 5.06539e-16 3.44808e-16 3.46542e-16 4.34083e-16 3.67761e-16 4.11129e-16 -3.1105e-16 3.06512e-16 4.03858e-16 3.2039e-16 2.18908e-16 -3.9942e-16 -2.64194e-16 7.88232e-17 7.04647e-18 1.93271e-17 -5.80598e-16 -6.23966e-16 -3.80772e-16 -3.49547e-16 -2.13371e-16 -2.45262e-16 -6.18228e-16 -5.11743e-16 -5.63785e-16 -4.33681e-16 -4.57231e-16 -5.9254e-16 -4.01457e-16 -4.79783e-16 -5.16212e-16 1.7561e-16 -2.61541e-16 -1.89487e-16 -3.26128e-16 -3.747e-16 -3.69427e-16 -3.93713e-16 9.53404e-17 -1.35308e-16 -2.70617e-16 -2.77556e-16 2.98928e-17 3.14387e-16 3.34399e-16 6.18894e-16 1.85615e-16 -7.90618e-17 6.18297e-16 -1.23901e-16 1.97023e-16 3.83374e-16 2.12039e-16 5.45106e-16 9.67421e-17 6.89865e-17 4.27075e-16 3.95184e-16 5.73194e-16 2.77889e-16 1.47785e-16 8.0397e-17 3.96716e-17 2.71815e-16 2.259e-16 5.10624e-17 -4.33681e-17 -1.06685e-16 -3.19605e-17 2.00027e-16 2.911e-16 -1.37043e-16 -1.68268e-16 2.06696e-16 3.48013e-16 1.08621e-16 -1.64063e-16 -1.22166e-16 2.0943e-16 2.03698e-16 -2.42126e-16 -1.76942e-16 -2.06835e-16 2.92766e-16 1.27037e-16 8.88734e-17 -1.21431e-16 -2.48135e-16 2.44527e-16 -1.09218e-16 1.5446e-16 
</DataArray>
<DataArray Name="Strain_13" format="ascii" type="Float64">
0 0 0 0 0 0 0 0 0 0 0 0 0 0 0 0 0 0 0 0 0 0 0 0 0 0 0 0 0 0 0 0 0 0 0 0 0 0 0 0 0 0 0 0 0 0 0 0 0 0 0 0 0 0 0 0 0 0 0 0 0 0 0 0 0 0 0 0 0 0 0 0 0 0 0 0 0 0 0 0 0 0 0 0 0 0 0 0 0 0 0 0 0 0 0 0 0 0 0 0 
</DataArray>
<DataArray Name="Strain_23" format="ascii" type="Float64">
0 0 0 0 0 0 0 0 0 0 0 0 0 0 0 0 0 0 0 0 0 0 0 0 0 0 0 0 0 0 0 0 0 0 0 0 0 0 0 0 0 0 0 0 0 0 0 0 0 0 0 0 0 0 0 0 0 0 0 0 0 0 0 0 0 0 0 0 0 0 0 0 0 0 0 0 0 0 0 0 0 0 0 0 0 0 0 0 0 0 0 0 0 0 0 0 0 0 0 0 
</DataArray>
<DataArray Name="Strain_33" format="ascii" type="Float64">
1 1 1 1 1 1 1 1 1 1 1 1 1 1 1 1 1 1 1 1 1 1 1 1 1 1 1 1 1 1 1 1 1 1 1 1 1 1 1 1 1 1 1 1 1 1 1 1 1 1 1 1 1 1 1 1 1 1 1 1 1 1 1 1 1 1 1 1 1 1 1 1 1 1 1 1 1 1 1 1 1 1 1 1 1 1 1 1 1 1 1 1 1 1 1 1 1 1 1 1 
</DataArray>
<DataArray Name="Stress_11" format="ascii" type="Float64">
-3.55271e-15 1.77636e-14 0 -7.10543e-15 -2.13163e-14 -1.42109e-14 -1.06581e-14 -1.77636e-14 -2.84217e-14 -1.77636e-14 -3.55271e-15 -3.90799e-14 -2.84217e-14 -3.55271e-14 -2.4869e-14 -1.06581e-14 -6.39488e-14 -4.9738e-14 -3.90799e-14 -2.84217e-14 -1.77636e-14 -4.9738e-14 -5.68434e-14 -4.9738e-14 -4.26326e-14 -2.13163e-14 -3.19744e-14 -4.9738e-14 -5.68434e-14 -4.26326e-14 3.55271e-15 -4.26326e-14 -4.26326e-14 -4.26326e-14 -4.61853e-14 -1.77636e-14 -3.90799e-14 -4.26326e-14 -4.26326e-14 -4.26326e-14 -3.55271e-14 -4.26326e-14 -4.61853e-14 -5.68434e-14 -5.32907e-14 -2.13163e-14 -3.55271e-14 -5.32907e-14 -6.03961e-14 -7.10543e-14 -3.19744e-14 -2.4869e-14 -1.06581e-14 -3.55271e-14 -1.77636e-14 -1.77636e-14 -1.77636e-14 -7.10543e-15 -2.13163e-14 -1.77636e-14 -1.77636e-14 -2.84217e-14 -7.10543e-15 -7.10543e-15 -2.4869e-14 -1.42109e-14 -2.13163e-14 -2.13163e-14 -1.06581e-14 -3.90799e-14 -2.13163e-14 -1.42109e-14 -2.13163e-14 -2.4869e-14 -2.84217e-14 -2.84217e-14 -2.13163e-14 -2.13163e-14 -2.4869e-14 -7.10543e-15 -3.90799e-14 -3.55271e-14 -2.84217e-14 -1.42109e-14 -1.42109e-14 -4.61853e-14 -4.26326e-14 -2.4869e-14 -3.19744e-14 -3.55271e-14 -4.9738e-14 -4.26326e-14 -3.55271e-14 -4.61853e-14 -3.19744e-14 -6.39488e-14 -6.39488e-14 -4.61853e-14 -1.77636e-14 -1.06581e-14 
</DataArray>
<DataArray Name="Stress_22" format="ascii" type="Float64">
-1.42109e-14 -1.06581e-14 -1.77636e-14 -1.42109e-14 -2.13163e-14 -2.4869e-14 -2.84217e-14 -2.84217e-14 -3.55271e-15 -2.4869e-14 -1.42109e-14 -1.06581e-14 -7.10543e-15 -2.84217e-14 -3.90799e-14 -2.84217e-14 -2.13163e-14 -2.84217e-14 -3.55271e-14 -3.55271e-14 -3.90799e-14 -3.19744e-14 -2.4869e-14 -2.84217e-14 -2.84217e-14 -3.55271e-14 -2.84217e-14 -2.84217e-14 -3.19744e-14 -3.55271e-14 -7.10543e-15 -3.19744e-14 -3.19744e-14 -3.90799e-14 -4.61853e-14 -1.77636e-14 -2.4869e-14 -3.55271e-14 -4.26326e-14 -3.90799e-14 -1.42109e-14 -3.90799e-14 -3.55271e-14 -4.26326e-14 -3.55271e-14 7.10543e-15 0 3.55271e-15 -3.55271e-15 -2.13163e-14 -4.61853e-14 -4.61853e-14 -1.42109e-14 -1.42109e-14 -1.42109e-14 -4.26326e-14 -2.84217e-14 -7.10543e-15 -7.10543e-15 -2.4869e-14 -4.61853e-14 -2.4869e-14 -1.42109e-14 -7.10543e-15 -7.10543e-15 -3.55271e-14 -2.84217e-14 -3.19744e-14 -2.84217e-14 -7.10543e-15 -3.55271e-14 -3.55271e-14 -2.4869e-14 -1.42109e-14 0 -3.90799e-14 -3.55271e-14 -3.19744e-14 -1.77636e-14 7.10543e-15 -4.26326e-14 -3.19744e-14 -4.26326e-14 -2.84217e-14 7.10543e-15 -4.9738e-14 -4.9738e-14 -2.84217e-14 -7.10543e-15 -2.4869e-14 -2.13163e-14 -3.19744e-14 -3.55271e-15 -7.10543e-15 -7.10543e-15 -3.55271e-14 -2.13163e-14 -7.10543e-15 -1.06581e-14 -1.06581e-14 
</DataArray>
<DataArray Name="Stress_12" format="ascii" type="Float64">
-1.20876e-14 9.30744e-15 -1.26324e-14 6.50527e-15 2.472e-14 -1.11486e-15 1.79673e-14 -1.86195e-16 1.95881e-14 2.1106e-14 1.43671e-14 1.44394e-14 1.80869e-14 1.53235e-14 1.71305e-14 -1.29605e-14 1.27714e-14 1.68275e-14 1.33497e-14 9.12125e-15 -1.66426e-14 -1.10082e-14 3.28433e-15 2.93605e-16 8.05303e-16 -2.41918e-14 -2.59988e-14 -1.58656e-14 -1.45646e-14 -8.89053e-15 -1.02193e-14 -2.57597e-14 -2.13228e-14 -2.34912e-14 -1.80702e-14 -1.90515e-14 -2.46894e-14 -1.67275e-14 -1.99911e-14 -2.1509e-14 7.31712e-15 -1.08976e-14 -7.89537e-15 -1.35888e-14 -1.56126e-14 -1.53929e-14 -1.64048e-14 3.97255e-15 -5.6379e-15 -1.12758e-14 -1.15649e-14 1.24554e-15 1.30996e-14 1.39334e-14 2.57874e-14 7.73404e-15 -3.29427e-15 2.57626e-14 -5.16258e-15 8.20936e-15 1.5974e-14 8.83502e-15 2.27129e-14 4.03095e-15 2.87446e-15 1.77949e-14 1.64661e-14 2.38833e-14 1.15788e-14 6.15774e-15 3.3499e-15 1.653e-15 1.13257e-14 9.41257e-15 2.12762e-15 -1.80702e-15 -4.44526e-15 -1.3317e-15 8.33455e-15 1.21293e-14 -5.71018e-15 -7.01123e-15 8.61239e-15 1.45007e-14 4.52593e-15 -6.83602e-15 -5.0903e-15 8.72631e-15 8.48749e-15 -1.00887e-14 -7.37263e-15 -8.61818e-15 1.21987e-14 5.29326e-15 3.70309e-15 -5.05965e-15 -1.0339e-14 1.01887e-14 -4.55079e-15 6.43588e-15 
</DataArray>
<DataArray Name="Stress_13" format="ascii" type="Float64">
0 0 0 0 0 0 0 0 0 0 0 0 0 0 0 0 0 0 0 0 0 0 0 0 0 0 0 0 0 0 0 0 0 0 0 0 0 0 0 0 0 0 0 0 0 0 0 0 0 0 0 0 0 0 0 0 0 0 0 0 0 0 0 0 0 0 0 0 0 0 0 0 0 0 0 0 0 0 0 0 0 0 0 0 0 0 0 0 0 0 0 0 0 0 0 0 0 0 0 0 
</DataArray>
<DataArray Name="Stress_23" format="ascii" type="Float64">
0 0 0 0 0 0 0 0 0 0 0 0 0 0 0 0 0 0 0 0 0 0 0 0 0 0 0 0 0 0 0 0 0 0 0 0 0 0 0 0 0 0 0 0 0 0 0 0 0 0 0 0 0 0 0 0 0 0 0 0 0 0 0 0 0 0 0 0 0 0 0 0 0 0 0 0 0 0 0 0 0 0 0 0 0 0 0 0 0 0 0 0 0 0 0 0 0 0 0 0 
</DataArray>
<DataArray Name="Stress_33" format="ascii" type="Float64">
100 100 100 100 100 100 100 100 100 100 100 100 100 100 100 100 100 100 100 100 100 100 100 100 100 100 100 100 100 100 100 100 100 100 100 100 100 100 100 100 100 100 100 100 100 100 100 100 100 100 100 100 100 100 100 100 100 100 100 100 100 100 100 100 100 100 100 100 100 100 100 100 100 100 100 100 100 100 100 100 100 100 100 100 100 100 100 100 100 100 100 100 100 100 100 100 100 100 100 100 
</DataArray>
</CellData>
<Points>
<DataArray NumberOfComponents="3" format="ascii" type="Float64">
-0.05 -0.05 0 -0.05 0 0 -0.05 -0.04 0 -0.05 -0.03 0 -0.05 -0.02 0 -0.05 -0.01 0 0 0 0 -0.04 0 0 -0.03 0 0 -0.02 0 0 -0.01 0 0 0 -0.05 0 0 -0.01 0 0 -0.02 0 0 -0.03 0 0 -0.04 0 -0.01 -0.05 0 -0.02 -0.05 0 -0.03 -0.05 0 -0.04 -0.05 0 -0.04 -0.04 0 -0.04 -0.03 0 -0.04 -0.02 0 -0.04 -0.01 0 -0.03 -0.04 0 -0.03 -0.03 0 -0.03 -0.02 0 -0.03 -0.01 0 -0.02 -0.04 0 -0.02 -0.03 0 -0.02 -0.02 0 -0.02 -0.01 0 -0.01 -0.04 0 -0.01 -0.03 0 -0.01 -0.02 0 -0.01 -0.01 0 -0.05 0.05 0 -0.05 0.01 0 -0.05 0.02 0 -0.05 0.03 0 -0.05 0.04 0 0 0.05 0 -0.04 0.05 0 -0.03 0.05 0 -0.02 0.05 0 -0.01 0.05 0 0 0.04 0 0 0.03 0 0 0.02 0 0 0.01 0 -0.04 0.01 0 -0.04 0.02 0 -0.04 0.03 0 -0.04 0.04 0 -0.03 0.01 0 -0.03 0.02 0 -0.03 0.03 0 -0.03 0.04 0 -0.02 0.01 0 -0.02 0.02 0 -0.02 0.03 0 -0.02 0.04 0 -0.01 0.01 0 -0.01 0.02 0 -0.01 0.03 0 -0.01 0.04 0 0.05 0 0 0.01 0 0 0.02 0 0 0.03 0 0 0.04 0 0 0.05 -0.05 0 0.05 -0.01 0 0.05 -0.02 0 0.05 -0.03 0 0.05 -0.04 0 0.04 -0.05 0 0.03 -0.05 0 0.02 -0.05 0 0.01 -0.05 0 0.01 -0.04 0 0.01 -0.03 0 0.01 -0.02 0 0.01 -0.01 0 0.02 -0.04 0 0.02 -0.03 0 0.02 -0.02 0 0.02 -0.01 0 0.03 -0.04 0 0.03 -0.03 0 0.03 -0.02 0 0.03 -0.01 0 0.04 -0.04 0 0.04 -0.03 0 0.04 -0.02 0 0.04 -0.01 0 0.05 0.05 0 0.01 0.05 0 0.02 0.05 0 0.03 0.05 0 0.04 0.05 0 0.05 0.04 0 0.05 0.03 0 0.05 0.02 0 0.05 0.01 0 0.01 0.01 0 0.01 0.02 0 0.01 0.03 0 0.01 0.04 0 0.02 0.01 0 0.02 0.02 0 0.02 0.03 0 0.02 0.04 0 0.03 0.01 0 0.03 0.02 0 0.03 0.03 0 0.03 0.04 0 0.04 0.01 0 0.04 0.02 0 0.04 0.03 0 0.04 0.04 0 
</DataArray>
</Points>
<Cells>
<DataArray Name="connectivity" format="ascii" type="Int64">
0 19 20 2 19 18 24 20 18 17 28 24 17 16 32 28 16 11 15 32 2 20 21 3 20 24 25 21 24 28 29 25 28 32 33 29 32 15 14 33 3 21 22 4 21 25 26 22 25 29 30 26 29 33 34 30 33 14 13 34 4 22 23 5 22 26 27 23 26 30 31 27 30 34 35 31 34 13 12 35 5 23 7 1 23 27 8 7 27 31 9 8 31 35 10 9 35 12 6 10 1 7 50 37 7 8 54 50 8 9 58 54 9 10 62 58 10 6 49 62 37 50 51 38 50 54 55 51 54 58 59 55 58 62 63 59 62 49 48 63 38 51 52 39 51 55 56 52 55 59 60 56 59 63 64 60 63 48 47 64 39 52 53 40 52 56 57 53 56 60 61 57 60 64 65 61 64 47 46 65 40 53 42 36 53 57 43 42 57 61 44 43 61 65 45 44 65 46 41 45 11 79 80 15 79 78 84 80 78 77 88 84 77 76 92 88 76 71 75 92 15 80 81 14 80 84 85 81 84 88 89 85 88 92 93 89 92 75 74 93 14 81 82 13 81 85 86 82 85 89 90 86 89 93 94 90 93 74 73 94 13 82 83 12 82 86 87 83 86 90 91 87 90 94 95 91 94 73 72 95 12 83 67 6 83 87 68 67 87 91 69 68 91 95 70 69 95 72 66 70 6 67 105 49 67 68 109 105 68 69 113 109 69 70 117 113 70 66 104 117 49 105 106 48 105 109 110 106 109 113 114 110 113 117 118 114 117 104 103 118 48 106 107 47 106 110 111 107 110 114 115 111 114 118 119 115 118 103 102 119 47 107 108 46 107 111 112 108 111 115 116 112 115 119 120 116 119 102 101 120 46 108 97 41 108 112 98 97 112 116 99 98 116 120 100 99 120 101 96 100 
</DataArray>
<DataArray Name="offsets" format="ascii" type="Int64">
4 8 12 16 20 24 28 32 36 40 44 48 52 56 60 64 68 72 76 80 84 88 92 96 100 104 108 112 116 120 124 128 132 136 140 144 148 152 156 160 164 168 172 176 180 184 188 192 196 200 204 208 212 216 220 224 228 232 236 240 244 248 252 256 260 264 268 272 276 280 284 288 292 296 300 304 308 312 316 320 324 328 332 336 340 344 348 352 356 360 364 368 372 376 380 384 388 392 396 400 
</DataArray>
<DataArray Name="types" format="ascii" type="Int8">
9 9 9 9 9 9 9 9 9 9 9 9 9 9 9 9 9 9 9 9 9 9 9 9 9 9 9 9 9 9 9 9 9 9 9 9 9 9 9 9 9 9 9 9 9 9 9 9 9 9 9 9 9 9 9 9 9 9 9 9 9 9 9 9 9 9 9 9 9 9 9 9 9 9 9 9 9 9 9 9 9 9 9 9 9 9 9 9 9 9 9 9 9 9 9 9 9 9 9 9 
</DataArray>
</Cells>
</Piece>
</UnstructuredGrid>
</VTKFile>
