<?xml version="1.0"?>
<VTKFile byte_order="LittleEndian" type="UnstructuredGrid" version="0.1">
<UnstructuredGrid>
<Piece NumberOfCells="100" NumberOfPoints="121">
<PointData>
<DataArray Name="Warping_X" format="ascii" type="Float64">
0.000771302 0.299639 0.108064 0.19184 0.251722 0.28766 -0.000221923 0.19167 0.107703 0.0477385 0.0117672 -0.299668 -0.0121914 -0.048102 -0.107964 -0.191804 -0.287653 -0.251607 -0.191518 -0.107368 0.000101219 0.0838679 0.143751 0.179689 -0.0838217 -6.67011e-05 0.0597967 0.0957253 -0.143805 -0.0600056 -0.000151873 0.0357653 -0.179803 -0.0959736 -0.0361148 -0.00020326 0.000771302 0.28766 0.251722 0.19184 0.108064 -0.299668 -0.107368 -0.191518 -0.251607 -0.287653 -0.191804 -0.107964 -0.048102 -0.0121914 0.179689 0.143751 0.0838679 0.000101219 0.0957253 0.0597967 -6.67011e-05 -0.0838217 0.0357653 -0.000151873 -0.0600056 -0.143805 -0.00020326 -0.0361148 -0.0959736 -0.179803 0.299639 0.0117672 0.0477385 0.107703 0.19167 0.000771302 0.28766 0.251722 0.19184 0.108064 -0.107368 -0.191518 -0.251607 -0.287653 -0.179803 -0.0959736 -0.0361148 -0.00020326 -0.143805 -0.0600056 -0.000151873 0.0357653 -0.0838217 -6.67011e-05 0.0597967 0.0957253 0.000101219 0.0838679 0.143751 0.179689 0.000771302 -0.287653 -0.251607 -0.191518 -0.107368 0.108064 0.19184 0.251722 0.28766 -0.00020326 -0.0361148 -0.0959736 -0.179803 0.0357653 -0.000151873 -0.0600056 -0.143805 0.0957253 0.0597967 -6.67011e-05 -0.0838217 0.179689 0.143751 0.0838679 0.000101219 
</DataArray>
<DataArray Name="Warping_Y" format="ascii" type="Float64">
0.598051 4.66345e-17 0.478742 0.359175 0.239487 0.119752 -2.09185e-17 9.5833e-17 6.7188e-17 1.60974e-17 -8.65028e-18 -1.55357e-16 -5.10981e-17 -7.89405e-17 -1.1121e-16 -1.49718e-16 0.119892 0.239758 0.35955 0.479209 0.383256 0.287415 0.19161 0.0958064 0.28762 0.215667 0.143756 0.0718727 0.191799 0.143831 0.095871 0.0479298 0.0959137 0.0719292 0.0479465 0.0239704 -0.598051 -0.119752 -0.239487 -0.359175 -0.478742 4.18819e-17 -0.479209 -0.35955 -0.239758 -0.119892 2.33683e-17 2.20895e-17 2.28055e-17 3.24967e-18 -0.0958064 -0.19161 -0.287415 -0.383256 -0.0718727 -0.143756 -0.215667 -0.28762 -0.0479298 -0.095871 -0.143831 -0.191799 -0.0239704 -0.0479465 -0.0719292 -0.0959137 -4.40239e-17 -2.37112e-17 -2.48959e-17 -5.23921e-17 -8.38067e-17 -0.598051 -0.119752 -0.239487 -0.359175 -0.478742 -0.479209 -0.35955 -0.239758 -0.119892 -0.0959137 -0.0719292 -0.0479465 -0.0239704 -0.191799 -0.143831 -0.095871 -0.0479298 -0.28762 -0.215667 -0.143756 -0.0718727 -0.383256 -0.287415 -0.19161 -0.0958064 0.598051 0.119892 0.239758 0.35955 0.479209 0.478742 0.359175 0.239487 0.119752 0.0239704 0.0479465 0.0719292 0.0959137 0.0479298 0.095871 0.143831 0.191799 0.0718727 0.143756 0.215667 0.28762 0.0958064 0.19161 0.287415 0.383256 
</DataArray>
<DataArray Name="Warping_Z" format="ascii" type="Float64">
0 0 0 0 0 0 0 0 0 0 0 0 0 0 0 0 0 0 0 0 0 0 0 0 0 0 0 0 0 0 0 0 0 0 0 0 0 0 0 0 0 0 0 0 0 0 0 0 0 0 0 0 0 0 0 0 0 0 0 0 0 0 0 0 0 0 0 0 0 0 0 0 0 0 0 0 0 0 0 0 0 0 0 0 0 0 0 0 0 0 0 0 0 0 0 0 0 0 0 0 0 0 0 0 0 0 0 0 0 0 0 0 0 0 0 0 0 0 0 0 0 
</DataArray>
</PointData>
<CellData>
<DataArray Name="MaterialId" format="ascii" type="Float64">
1 1 1 1 1 1 1 1 1 1 1 1 1 1 1 1 1 1 1 1 1 1 1 1 1 1 1 1 1 1 1 1 1 1 1 1 1 1 1 1 1 1 1 1 1 1 1 1 1 1 2 2 2 2 2 2 2 2 2 2 2 2 2 2 2 2 2 2 2 2 2 2 2 2 2 2 2 2 2 2 2 2 2 2 2 2 2 2 2 2 2 2 2 2 2 2 2 2 2 2 
</DataArray>
<DataArray Name="FiberAngle" format="ascii" type="Float64">
0 0 0 0 0 0 0 0 0 0 0 0 0 0 0 0 0 0 0 0 0 0 0 0 0 0 0 0 0 0 0 0 0 0 0 0 0 0 0 0 0 0 0 0 0 0 0 0 0 0 0 0 0 0 0 0 0 0 0 0 0 0 0 0 0 0 0 0 0 0 0 0 0 0 0 0 0 0 0 0 0 0 0 0 0 0 0 0 0 0 0 0 0 0 0 0 0 0 0 0 
</DataArray>
<DataArray Name="Strain_11" format="ascii" type="Float64">
-10.8051 -8.40367 -6.00363 -3.60221 -1.20074 -10.7967 -8.39288 -5.99611 -3.59831 -1.19953 -10.7971 -8.39445 -5.99438 -3.59655 -1.19887 -10.7971 -8.39592 -5.99543 -3.59658 -1.19877 -10.797 -8.39654 -5.99621 -3.597 -1.19886 -10.797 -8.39654 -5.99621 -3.597 -1.19886 -10.7971 -8.39592 -5.99543 -3.59658 -1.19877 -10.7971 -8.39445 -5.99438 -3.59655 -1.19887 -10.7967 -8.39288 -5.99611 -3.59831 -1.19953 -10.8051 -8.40367 -6.00363 -3.60221 -1.20074 1.20074 3.60221 6.00363 8.40367 10.8051 1.19953 3.59831 5.99611 8.39288 10.7967 1.19887 3.59655 5.99438 8.39445 10.7971 1.19877 3.59658 5.99543 8.39592 10.7971 1.19886 3.597 5.99621 8.39654 10.797 1.19886 3.597 5.99621 8.39654 10.797 1.19877 3.59658 5.99543 8.39592 10.7971 1.19887 3.59655 5.99438 8.39445 10.7971 1.19953 3.59831 5.99611 8.39288 10.7967 1.20074 3.60221 6.00363 8.40367 10.8051 
</DataArray>
<DataArray Name="Strain_22" format="ascii" type="Float64">
-10.7631 -8.39419 -5.99446 -3.59685 -1.19892 -10.7704 -8.38967 -5.99601 -3.59761 -1.19922 -10.7746 -8.38578 -5.99356 -3.59715 -1.19914 -10.777 -8.38437 -5.99123 -3.59587 -1.1988 -10.7779 -8.38395 -5.99013 -3.59501 -1.19852 -10.7779 -8.38395 -5.99013 -3.59501 -1.19852 -10.777 -8.38437 -5.99123 -3.59587 -1.1988 -10.7746 -8.38578 -5.99356 -3.59715 -1.19914 -10.7704 -8.38967 -5.99601 -3.59761 -1.19922 -10.7631 -8.39419 -5.99446 -3.59685 -1.19892 1.19892 3.59685 5.99446 8.39419 10.7631 1.19922 3.59761 5.99601 8.38967 10.7704 1.19914 3.59715 5.99356 8.38578 10.7746 1.1988 3.59587 5.99123 8.38437 10.777 1.19852 3.59501 5.99013 8.38395 10.7779 1.19852 3.59501 5.99013 8.38395 10.7779 1.1988 3.59587 5.99123 8.38437 10.777 1.19914 3.59715 5.99356 8.38578 10.7746 1.19922 3.59761 5.99601 8.38967 10.7704 1.19892 3.59685 5.99446 8.39419 10.7631 
</DataArray>
<DataArray Name="Strain_12" format="ascii" type="Float64">
0.0217063 -0.00651445 -0.00570592 -0.00492328 -0.00456269 0.0148157 0.00687965 -0.00508648 -0.00792368 -0.0086852 0.00641182 0.00723316 -0.000185331 -0.00570396 -0.0077557 0.00266246 0.00394611 0.00088737 -0.00276265 -0.0047333 0.000726751 0.00119794 0.000386295 -0.000788591 -0.0015224 -0.000726751 -0.00119794 -0.000386295 0.000788591 0.0015224 -0.00266246 -0.00394611 -0.00088737 0.00276265 0.0047333 -0.00641182 -0.00723316 0.000185331 0.00570396 0.0077557 -0.0148157 -0.00687965 0.00508648 0.00792368 0.0086852 -0.0217063 0.00651445 0.00570592 0.00492328 0.00456269 -0.00456269 -0.00492328 -0.00570592 -0.00651445 0.0217063 -0.0086852 -0.00792368 -0.00508648 0.00687965 0.0148157 -0.0077557 -0.00570396 -0.000185331 0.00723316 0.00641182 -0.0047333 -0.00276265 0.00088737 0.00394611 0.00266246 -0.0015224 -0.000788591 0.000386295 0.00119794 0.000726751 0.0015224 0.000788591 -0.000386295 -0.00119794 -0.000726751 0.0047333 0.00276265 -0.00088737 -0.00394611 -0.00266246 0.0077557 0.00570396 0.000185331 -0.00723316 -0.00641182 0.0086852 0.00792368 0.00508648 -0.00687965 -0.0148157 0.00456269 0.00492328 0.00570592 0.00651445 -0.0217063 
</DataArray>
<DataArray Name="Strain_13" format="ascii" type="Float64">
0 0 0 0 0 0 0 0 0 0 0 0 0 0 0 0 0 0 0 0 0 0 0 0 0 0 0 0 0 0 0 0 0 0 0 0 0 0 0 0 0 0 0 0 0 0 0 0 0 0 0 0 0 0 0 0 0 0 0 0 0 0 0 0 0 0 0 0 0 0 0 0 0 0 0 0 0 0 0 0 0 0 0 0 0 0 0 0 0 0 0 0 0 0 0 0 0 0 0 0 
</DataArray>
<DataArray Name="Strain_23" format="ascii" type="Float64">
0 0 0 0 0 0 0 0 0 0 0 0 0 0 0 0 0 0 0 0 0 0 0 0 0 0 0 0 0 0 0 0 0 0 0 0 0 0 0 0 0 0 0 0 0 0 0 0 0 0 0 0 0 0 0 0 0 0 0 0 0 0 0 0 0 0 0 0 0 0 0 0 0 0 0 0 0 0 0 0 0 0 0 0 0 0 0 0 0 0 0 0 0 0 0 0 0 0 0 0 
</DataArray>
<DataArray Name="Strain_33" format="ascii" type="Float64">
0.045 0.035 0.025 0.015 0.005 0.045 0.035 0.025 0.015 0.005 0.045 0.035 0.025 0.015 0.005 0.045 0.035 0.025 0.015 0.005 0.045 0.035 0.025 0.015 0.005 0.045 0.035 0.025 0.015 0.005 0.045 0.035 0.025 0.015 0.005 0.045 0.035 0.025 0.015 0.005 0.045 0.035 0.025 0.015 0.005 0.045 0.035 0.025 0.015 0.005 -0.005 -0.015 -0.025 -0.035 -0.045 -0.005 -0.015 -0.025 -0.035 -0.045 -0.005 -0.015 -0.025 -0.035 -0.045 -0.005 -0.015 -0.025 -0.035 -0.045 -0.005 -0.015 -0.025 -0.035 -0.045 -0.005 -0.015 -0.025 -0.035 -0.045 -0.005 -0.015 -0.025 -0.035 -0.045 -0.005 -0.015 -0.025 -0.035 -0.045 -0.005 -0.015 -0.025 -0.035 -0.045 -0.005 -0.015 -0.025 -0.035 -0.045 
</DataArray>
<DataArray Name="Stress_11" format="ascii" type="Float64">
-1498.29 -1165.94 -832.889 -499.741 -166.58 -1497.56 -1164.62 -832.096 -499.329 -166.454 -1497.73 -1164.68 -831.835 -499.121 -166.378 -1497.78 -1164.81 -831.887 -499.088 -166.358 -1497.8 -1164.86 -831.943 -499.111 -166.36 -1497.8 -1164.86 -831.943 -499.111 -166.36 -1497.78 -1164.81 -831.887 -499.088 -166.358 -1497.73 -1164.68 -831.835 -499.121 -166.378 -1497.56 -1164.62 -832.096 -499.329 -166.454 -1498.29 -1165.94 -832.889 -499.741 -166.58 166.58 499.741 832.889 1165.94 1498.29 166.454 499.329 832.096 1164.62 1497.56 166.378 499.121 831.835 1164.68 1497.73 166.358 499.088 831.887 1164.81 1497.78 166.36 499.111 831.943 1164.86 1497.8 166.36 499.111 831.943 1164.86 1497.8 166.358 499.088 831.887 1164.81 1497.78 166.378 499.121 831.835 1164.68 1497.73 166.454 499.329 832.096 1164.62 1497.56 166.58 499.741 832.889 1165.94 1498.29 
</DataArray>
<DataArray Name="Stress_22" format="ascii" type="Float64">
-1494.79 -1165.15 -832.124 -499.295 -166.429 -1495.37 -1164.35 -832.087 -499.271 -166.428 -1495.85 -1163.96 -831.768 -499.171 -166.401 -1496.11 -1163.84 -831.538 -499.029 -166.361 -1496.21 -1163.82 -831.436 -498.945 -166.332 -1496.21 -1163.82 -831.436 -498.945 -166.332 -1496.11 -1163.84 -831.538 -499.029 -166.361 -1495.85 -1163.96 -831.768 -499.171 -166.401 -1495.37 -1164.35 -832.087 -499.271 -166.428 -1494.79 -1165.15 -832.124 -499.295 -166.429 166.429 499.295 832.124 1165.15 1494.79 166.428 499.271 832.087 1164.35 1495.37 166.401 499.171 831.768 1163.96 1495.85 166.361 499.029 831.538 1163.84 1496.11 166.332 498.945 831.436 1163.82 1496.21 166.332 498.945 831.436 1163.82 1496.21 166.361 499.029 831.538 1163.84 1496.11 166.401 499.171 831.768 1163.96 1495.85 166.428 499.271 832.087 1164.35 1495.37 166.429 499.295 832.124 1165.15 1494.79 
</DataArray>
<DataArray Name="Stress_12" format="ascii" type="Float64">
0.904438 -0.271438 -0.237749 -0.205138 -0.190114 0.617326 0.286655 -0.211938 -0.330156 -0.361886 0.267161 0.301384 -0.00772217 -0.237667 -0.323157 0.110937 0.164423 0.0369741 -0.115111 -0.197222 0.0302816 0.0499145 0.0160958 -0.0328582 -0.0634336 -0.0302816 -0.0499145 -0.0160958 0.0328582 0.0634336 -0.110937 -0.164423 -0.0369741 0.115111 0.197222 -0.267161 -0.301384 0.00772217 0.237667 0.323157 -0.617326 -0.286655 0.211938 0.330156 0.361886 -0.904438 0.271438 0.237749 0.205138 0.190114 -0.190114 -0.205138 -0.237749 -0.271438 0.904438 -0.361886 -0.330156 -0.211938 0.286655 0.617326 -0.323157 -0.237667 -0.00772217 0.301384 0.267161 -0.197222 -0.115111 0.0369741 0.164423 0.110937 -0.0634336 -0.0328582 0.0160958 0.0499145 0.0302816 0.0634336 0.0328582 -0.0160958 -0.0499145 -0.0302816 0.197222 0.115111 -0.0369741 -0.164423 -0.110937 0.323157 0.237667 0.00772217 -0.301384 -0.267161 0.361886 0.330156 0.211938 -0.286655 -0.617326 0.190114 0.205138 0.237749 0.271438 -0.904438 
</DataArray>
<DataArray Name="Stress_13" format="ascii" type="Float64">
0 0 0 0 0 0 0 0 0 0 0 0 0 0 0 0 0 0 0 0 0 0 0 0 0 0 0 0 0 0 0 0 0 0 0 0 0 0 0 0 0 0 0 0 0 0 0 0 0 0 0 0 0 0 0 0 0 0 0 0 0 0 0 0 0 0 0 0 0 0 0 0 0 0 0 0 0 0 0 0 0 0 0 0 0 0 0 0 0 0 0 0 0 0 0 0 0 0 0 0 
</DataArray>
<DataArray Name="Stress_23" format="ascii" type="Float64">
0 0 0 0 0 0 0 0 0 0 0 0 0 0 0 0 0 0 0 0 0 0 0 0 0 0 0 0 0 0 0 0 0 0 0 0 0 0 0 0 0 0 0 0 0 0 0 0 0 0 0 0 0 0 0 0 0 0 0 0 0 0 0 0 0 0 0 0 0 0 0 0 0 0 0 0 0 0 0 0 0 0 0 0 0 0 0 0 0 0 0 0 0 0 0 0 0 0 0 0 
</DataArray>
<DataArray Name="Stress_33" format="ascii" type="Float64">
-594.116 -462.718 -330.503 -198.307 -66.1017 -594.087 -462.293 -330.337 -198.22 -66.0764 -594.216 -462.229 -330.221 -198.158 -66.0558 -594.278 -462.23 -330.185 -198.123 -66.0437 -594.304 -462.236 -330.176 -198.111 -66.0384 -594.304 -462.236 -330.176 -198.111 -66.0384 -594.278 -462.23 -330.185 -198.123 -66.0437 -594.216 -462.229 -330.221 -198.158 -66.0558 -594.087 -462.293 -330.337 -198.22 -66.0764 -594.116 -462.718 -330.503 -198.307 -66.1017 66.1017 198.307 330.503 462.718 594.116 66.0764 198.22 330.337 462.293 594.087 66.0558 198.158 330.221 462.229 594.216 66.0437 198.123 330.185 462.23 594.278 66.0384 198.111 330.176 462.236 594.304 66.0384 198.111 330.176 462.236 594.304 66.0437 198.123 330.185 462.23 594.278 66.0558 198.158 330.221 462.229 594.216 66.0764 198.22 330.337 462.293 594.087 66.1017 198.307 330.503 462.718 594.116 
</DataArray>
</CellData>
<Points>
<DataArray NumberOfComponents="3" format="ascii" type="Float64">
-0.05 -0.05 0 -0.05 0 0 -0.05 -0.04 0 -0.05 -0.03 0 -0.05 -0.02 0 -0.05 -0.01 0 0 0 0 -0.04 0 0 -0.03 0 0 -0.02 0 0 -0.01 0 0 0 -0.05 0 0 -0.01 0 0 -0.02 0 0 -0.03 0 0 -0.04 0 -0.01 -0.05 0 -0.02 -0.05 0 -0.03 -0.05 0 -0.04 -0.05 0 -0.04 -0.04 0 -0.04 -0.03 0 -0.04 -0.02 0 -0.04 -0.01 0 -0.03 -0.04 0 -0.03 -0.03 0 -0.03 -0.02 0 -0.03 -0.01 0 -0.02 -0.04 0 -0.02 -0.03 0 -0.02 -0.02 0 -0.02 -0.01 0 -0.01 -0.04 0 -0.01 -0.03 0 -0.01 -0.02 0 -0.01 -0.01 0 -0.05 0.05 0 -0.05 0.01 0 -0.05 0.02 0 -0.05 0.03 0 -0.05 0.04 0 0 0.05 0 -0.04 0.05 0 -0.03 0.05 0 -0.02 0.05 0 -0.01 0.05 0 0 0.04 0 0 0.03 0 0 0.02 0 0 0.01 0 -0.04 0.01 0 -0.04 0.02 0 -0.04 0.03 0 -0.04 0.04 0 -0.03 0.01 0 -0.03 0.02 0 -0.03 0.03 0 -0.03 0.04 0 -0.02 0.01 0 -0.02 0.02 0 -0.02 0.03 0 -0.02 0.04 0 -0.01 0.01 0 -0.01 0.02 0 -0.01 0.03 0 -0.01 0.04 0 0.05 0 0 0.01 0 0 0.02 0 0 0.03 0 0 0.04 0 0 0.05 -0.05 0 0.05 -0.01 0 0.05 -0.02 0 0.05 -0.03 0 0.05 -0.04 0 0.04 -0.05 0 0.03 -0.05 0 0.02 -0.05 0 0.01 -0.05 0 0.01 -0.04 0 0.01 -0.03 0 0.01 -0.02 0 0.01 -0.01 0 0.02 -0.04 0 0.02 -0.03 0 0.02 -0.02 0 0.02 -0.01 0 0.03 -0.04 0 0.03 -0.03 0 0.03 -0.02 0 0.03 -0.01 0 0.04 -0.04 0 0.04 -0.03 0 0.04 -0.02 0 0.04 -0.01 0 0.05 0.05 0 0.01 0.05 0 0.02 0.05 0 0.03 0.05 0 0.04 0.05 0 0.05 0.04 0 0.05 0.03 0 0.05 0.02 0 0.05 0.01 0 0.01 0.01 0 0.01 0.02 0 0.01 0.03 0 0.01 0.04 0 0.02 0.01 0 0.02 0.02 0 0.02 0.03 0 0.02 0.04 0 0.03 0.01 0 0.03 0.02 0 0.03 0.03 0 0.03 0.04 0 0.04 0.01 0 0.04 0.02 0 0.04 0.03 0 0.04 0.04 0 
</DataArray>
</Points>
<Cells>
<DataArray Name="connectivity" format="ascii" type="Int64">
0 19 20 2 19 18 24 20 18 17 28 24 17 16 32 28 16 11 15 32 2 20 21 3 20 24 25 21 24 28 29 25 28 32 33 29 32 15 14 33 3 21 22 4 21 25 26 22 25 29 30 26 29 33 34 30 33 14 13 34 4 22 23 5 22 26 27 23 26 30 31 27 30 34 35 31 34 13 12 35 5 23 7 1 23 27 8 7 27 31 9 8 31 35 10 9 35 12 6 10 1 7 50 37 7 8 54 50 8 9 58 54 9 10 62 58 10 6 49 62 37 50 51 38 50 54 55 51 54 58 59 55 58 62 63 59 62 49 48 63 38 51 52 39 51 55 56 52 55 59 60 56 59 63 64 60 63 48 47 64 39 52 53 40 52 56 57 53 56 60 61 57 60 64 65 61 64 47 46 65 40 53 42 36 53 57 43 42 57 61 44 43 61 65 45 44 65 46 41 45 11 79 80 15 79 78 84 80 78 77 88 84 77 76 92 88 76 71 75 92 15 80 81 14 80 84 85 81 84 88 89 85 88 92 93 89 92 75 74 93 14 81 82 13 81 85 86 82 85 89 90 86 89 93 94 90 93 74 73 94 13 82 83 12 82 86 87 83 86 90 91 87 90 94 95 91 94 73 72 95 12 83 67 6 83 87 68 67 87 91 69 68 91 95 70 69 95 72 66 70 6 67 105 49 67 68 109 105 68 69 113 109 69 70 117 113 70 66 104 117 49 105 106 48 105 109 110 106 109 113 114 110 113 117 118 114 117 104 103 118 48 106 107 47 106 110 111 107 110 114 115 111 114 118 119 115 118 103 102 119 47 107 108 46 107 111 112 108 111 115 116 112 115 119 120 116 119 102 101 120 46 108 97 41 108 112 98 97 112 116 99 98 116 120 100 99 120 101 96 100 
</DataArray>
<DataArray Name="offsets" format="ascii" type="Int64">
4 8 12 16 20 24 28 32 36 40 44 48 52 56 60 64 68 72 76 80 84 88 92 96 100 104 108 112 116 120 124 128 132 136 140 144 148 152 156 160 164 168 172 176 180 184 188 192 196 200 204 208 212 216 220 224 228 232 236 240 244 248 252 256 260 264 268 272 276 280 284 288 292 296 300 304 308 312 316 320 324 328 332 336 340 344 348 352 356 360 364 368 372 376 380 384 388 392 396 400 
</DataArray>
<DataArray Name="types" format="ascii" type="Int8">
9 9 9 9 9 9 9 9 9 9 9 9 9 9 9 9 9 9 9 9 9 9 9 9 9 9 9 9 9 9 9 9 9 9 9 9 9 9 9 9 9 9 9 9 9 9 9 9 9 9 9 9 9 9 9 9 9 9 9 9 9 9 9 9 9 9 9 9 9 9 9 9 9 9 9 9 9 9 9 9 9 9 9 9 9 9 9 9 9 9 9 9 9 9 9 9 9 9 9 9 
</DataArray>
</Cells>
</Piece>
</UnstructuredGrid>
</VTKFile>
