<?xml version="1.0"?>
<VTKFile byte_order="LittleEndian" type="UnstructuredGrid" version="0.1">
<UnstructuredGrid>
<Piece NumberOfCells="100" NumberOfPoints="121">
<PointData>
<DataArray Name="Warping_X" format="ascii" type="Float64">
-0.598051 -3.07376e-17 -0.479209 -0.35955 -0.239758 -0.119892 -4.26728e-17 -3.47621e-17 -3.95049e-17 -3.1622e-17 -3.78943e-17 2.41468e-17 -4.1368e-17 -9.01296e-18 2.28095e-17 3.78081e-17 -0.119752 -0.239487 -0.359175 -0.478742 -0.383256 -0.28762 -0.191799 -0.0959137 -0.287415 -0.215667 -0.143831 -0.0719292 -0.19161 -0.143756 -0.095871 -0.0479465 -0.0958064 -0.0718727 -0.0479298 -0.0239704 0.598051 0.119892 0.239758 0.35955 0.479209 1.00399e-16 0.478742 0.359175 0.239487 0.119752 5.63378e-17 4.21995e-17 1.39871e-17 -2.58284e-17 0.0959137 0.191799 0.28762 0.383256 0.0719292 0.143831 0.215667 0.287415 0.0479465 0.095871 0.143756 0.19161 0.0239704 0.0479298 0.0718727 0.0958064 -1.68409e-17 -4.47141e-17 -5.08417e-17 -3.67968e-17 -2.51486e-17 0.598051 0.119892 0.239758 0.35955 0.479209 0.478742 0.359175 0.239487 0.119752 0.0958064 0.0718727 0.0479298 0.0239704 0.19161 0.143756 0.095871 0.0479465 0.287415 0.215667 0.143831 0.0719292 0.383256 0.28762 0.191799 0.0959137 -0.598051 -0.119752 -0.239487 -0.359175 -0.478742 -0.479209 -0.35955 -0.239758 -0.119892 -0.0239704 -0.0479298 -0.0718727 -0.0958064 -0.0479465 -0.095871 -0.143756 -0.19161 -0.0719292 -0.143831 -0.215667 -0.287415 -0.0959137 -0.191799 -0.28762 -0.383256 
</DataArray>
<DataArray Name="Warping_Y" format="ascii" type="Float64">
-0.000771302 0.299668 0.107368 0.191518 0.251607 0.287653 0.000221923 0.191804 0.107964 0.048102 0.0121914 -0.299639 -0.0117672 -0.0477385 -0.107703 -0.19167 -0.28766 -0.251722 -0.19184 -0.108064 -0.000101219 0.0838217 0.143805 0.179803 -0.0838679 6.67011e-05 0.0600056 0.0959736 -0.143751 -0.0597967 0.000151873 0.0361148 -0.179689 -0.0957253 -0.0357653 0.00020326 -0.000771302 0.287653 0.251607 0.191518 0.107368 -0.299639 -0.108064 -0.19184 -0.251722 -0.28766 -0.19167 -0.107703 -0.0477385 -0.0117672 0.179803 0.143805 0.0838217 -0.000101219 0.0959736 0.0600056 6.67011e-05 -0.0838679 0.0361148 0.000151873 -0.0597967 -0.143751 0.00020326 -0.0357653 -0.0957253 -0.179689 0.299668 0.0121914 0.048102 0.107964 0.191804 -0.000771302 0.287653 0.251607 0.191518 0.107368 -0.108064 -0.19184 -0.251722 -0.28766 -0.179689 -0.0957253 -0.0357653 0.00020326 -0.143751 -0.0597967 0.000151873 0.0361148 -0.0838679 6.67011e-05 0.0600056 0.0959736 -0.000101219 0.0838217 0.143805 0.179803 -0.000771302 -0.28766 -0.251722 -0.19184 -0.108064 0.107368 0.191518 0.251607 0.287653 0.00020326 -0.0357653 -0.0957253 -0.179689 0.0361148 0.000151873 -0.0597967 -0.143751 0.0959736 0.0600056 6.67011e-05 -0.0838679 0.179803 0.143805 0.0838217 -0.000101219 
</DataArray>
<DataArray Name="Warping_Z" format="ascii" type="Float64">
0 0 0 0 0 0 0 0 0 0 0 0 0 0 0 0 0 0 0 0 0 0 0 0 0 0 0 0 0 0 0 0 0 0 0 0 0 0 0 0 0 0 0 0 0 0 0 0 0 0 0 0 0 0 0 0 0 0 0 0 0 0 0 0 0 0 0 0 0 0 0 0 0 0 0 0 0 0 0 0 0 0 0 0 0 0 0 0 0 0 0 0 0 0 0 0 0 0 0 0 0 0 0 0 0 0 0 0 0 0 0 0 0 0 0 0 0 0 0 0 0 
</DataArray>
</PointData>
<CellData>
<DataArray Name="MaterialId" format="ascii" type="Float64">
1 1 1 1 1 1 1 1 1 1 1 1 1 1 1 1 1 1 1 1 1 1 1 1 1 1 1 1 1 1 1 1 1 1 1 1 1 1 1 1 1 1 1 1 1 1 1 1 1 1 2 2 2 2 2 2 2 2 2 2 2 2 2 2 2 2 2 2 2 2 2 2 2 2 2 2 2 2 2 2 2 2 2 2 2 2 2 2 2 2 2 2 2 2 2 2 2 2 2 2 
</DataArray>
<DataArray Name="FiberAngle" format="ascii" type="Float64">
0 0 0 0 0 0 0 0 0 0 0 0 0 0 0 0 0 0 0 0 0 0 0 0 0 0 0 0 0 0 0 0 0 0 0 0 0 0 0 0 0 0 0 0 0 0 0 0 0 0 0 0 0 0 0 0 0 0 0 0 0 0 0 0 0 0 0 0 0 0 0 0 0 0 0 0 0 0 0 0 0 0 0 0 0 0 0 0 0 0 0 0 0 0 0 0 0 0 0 0 
</DataArray>
<DataArray Name="Strain_11" format="ascii" type="Float64">
10.7631 10.7704 10.7746 10.777 10.7779 8.39419 8.38967 8.38578 8.38437 8.38395 5.99446 5.99601 5.99356 5.99123 5.99013 3.59685 3.59761 3.59715 3.59587 3.59501 1.19892 1.19922 1.19914 1.1988 1.19852 -1.19892 -1.19922 -1.19914 -1.1988 -1.19852 -3.59685 -3.59761 -3.59715 -3.59587 -3.59501 -5.99446 -5.99601 -5.99356 -5.99123 -5.99013 -8.39419 -8.38967 -8.38578 -8.38437 -8.38395 -10.7631 -10.7704 -10.7746 -10.777 -10.7779 10.7779 10.777 10.7746 10.7704 10.7631 8.38395 8.38437 8.38578 8.38967 8.39419 5.99013 5.99123 5.99356 5.99601 5.99446 3.59501 3.59587 3.59715 3.59761 3.59685 1.19852 1.1988 1.19914 1.19922 1.19892 -1.19852 -1.1988 -1.19914 -1.19922 -1.19892 -3.59501 -3.59587 -3.59715 -3.59761 -3.59685 -5.99013 -5.99123 -5.99356 -5.99601 -5.99446 -8.38395 -8.38437 -8.38578 -8.38967 -8.39419 -10.7779 -10.777 -10.7746 -10.7704 -10.7631 
</DataArray>
<DataArray Name="Strain_22" format="ascii" type="Float64">
10.8051 10.7967 10.7971 10.7971 10.797 8.40367 8.39288 8.39445 8.39592 8.39654 6.00363 5.99611 5.99438 5.99543 5.99621 3.60221 3.59831 3.59655 3.59658 3.597 1.20074 1.19953 1.19887 1.19877 1.19886 -1.20074 -1.19953 -1.19887 -1.19877 -1.19886 -3.60221 -3.59831 -3.59655 -3.59658 -3.597 -6.00363 -5.99611 -5.99438 -5.99543 -5.99621 -8.40367 -8.39288 -8.39445 -8.39592 -8.39654 -10.8051 -10.7967 -10.7971 -10.7971 -10.797 10.797 10.7971 10.7971 10.7967 10.8051 8.39654 8.39592 8.39445 8.39288 8.40367 5.99621 5.99543 5.99438 5.99611 6.00363 3.597 3.59658 3.59655 3.59831 3.60221 1.19886 1.19877 1.19887 1.19953 1.20074 -1.19886 -1.19877 -1.19887 -1.19953 -1.20074 -3.597 -3.59658 -3.59655 -3.59831 -3.60221 -5.99621 -5.99543 -5.99438 -5.99611 -6.00363 -8.39654 -8.39592 -8.39445 -8.39288 -8.40367 -10.797 -10.7971 -10.7971 -10.7967 -10.8051 
</DataArray>
<DataArray Name="Strain_12" format="ascii" type="Float64">
-0.0217063 -0.0148157 -0.00641182 -0.00266246 -0.000726751 0.00651445 -0.00687965 -0.00723316 -0.00394611 -0.00119794 0.00570592 0.00508648 0.000185331 -0.00088737 -0.000386295 0.00492328 0.00792368 0.00570396 0.00276265 0.000788591 0.00456269 0.0086852 0.0077557 0.0047333 0.0015224 0.00456269 0.0086852 0.0077557 0.0047333 0.0015224 0.00492328 0.00792368 0.00570396 0.00276265 0.000788591 0.00570592 0.00508648 0.000185331 -0.00088737 -0.000386295 0.00651445 -0.00687965 -0.00723316 -0.00394611 -0.00119794 -0.0217063 -0.0148157 -0.00641182 -0.00266246 -0.000726751 0.000726751 0.00266246 0.00641182 0.0148157 0.0217063 0.00119794 0.00394611 0.00723316 0.00687965 -0.00651445 0.000386295 0.00088737 -0.000185331 -0.00508648 -0.00570592 -0.000788591 -0.00276265 -0.00570396 -0.00792368 -0.00492328 -0.0015224 -0.0047333 -0.0077557 -0.0086852 -0.00456269 -0.0015224 -0.0047333 -0.0077557 -0.0086852 -0.00456269 -0.000788591 -0.00276265 -0.00570396 -0.00792368 -0.00492328 0.000386295 0.00088737 -0.000185331 -0.00508648 -0.00570592 0.00119794 0.00394611 0.00723316 0.00687965 -0.00651445 0.000726751 0.00266246 0.00641182 0.0148157 0.0217063 
</DataArray>
<DataArray Name="Strain_13" format="ascii" type="Float64">
0 0 0 0 0 0 0 0 0 0 0 0 0 0 0 0 0 0 0 0 0 0 0 0 0 0 0 0 0 0 0 0 0 0 0 0 0 0 0 0 0 0 0 0 0 0 0 0 0 0 0 0 0 0 0 0 0 0 0 0 0 0 0 0 0 0 0 0 0 0 0 0 0 0 0 0 0 0 0 0 0 0 0 0 0 0 0 0 0 0 0 0 0 0 0 0 0 0 0 0 
</DataArray>
<DataArray Name="Strain_23" format="ascii" type="Float64">
0 0 0 0 0 0 0 0 0 0 0 0 0 0 0 0 0 0 0 0 0 0 0 0 0 0 0 0 0 0 0 0 0 0 0 0 0 0 0 0 0 0 0 0 0 0 0 0 0 0 0 0 0 0 0 0 0 0 0 0 0 0 0 0 0 0 0 0 0 0 0 0 0 0 0 0 0 0 0 0 0 0 0 0 0 0 0 0 0 0 0 0 0 0 0 0 0 0 0 0 
</DataArray>
<DataArray Name="Strain_33" format="ascii" type="Float64">
-0.045 -0.045 -0.045 -0.045 -0.045 -0.035 -0.035 -0.035 -0.035 -0.035 -0.025 -0.025 -0.025 -0.025 -0.025 -0.015 -0.015 -0.015 -0.015 -0.015 -0.005 -0.005 -0.005 -0.005 -0.005 0.005 0.005 0.005 0.005 0.005 0.015 0.015 0.015 0.015 0.015 0.025 0.025 0.025 0.025 0.025 0.035 0.035 0.035 0.035 0.035 0.045 0.045 0.045 0.045 0.045 -0.045 -0.045 -0.045 -0.045 -0.045 -0.035 -0.035 -0.035 -0.035 -0.035 -0.025 -0.025 -0.025 -0.025 -0.025 -0.015 -0.015 -0.015 -0.015 -0.015 -0.005 -0.005 -0.005 -0.005 -0.005 0.005 0.005 0.005 0.005 0.005 0.015 0.015 0.015 0.015 0.015 0.025 0.025 0.025 0.025 0.025 0.035 0.035 0.035 0.035 0.035 0.045 0.045 0.045 0.045 0.045 
</DataArray>
<DataArray Name="Stress_11" format="ascii" type="Float64">
1494.79 1495.37 1495.85 1496.11 1496.21 1165.15 1164.35 1163.96 1163.84 1163.82 832.124 832.087 831.768 831.538 831.436 499.295 499.271 499.171 499.029 498.945 166.429 166.428 166.401 166.361 166.332 -166.429 -166.428 -166.401 -166.361 -166.332 -499.295 -499.271 -499.171 -499.029 -498.945 -832.124 -832.087 -831.768 -831.538 -831.436 -1165.15 -1164.35 -1163.96 -1163.84 -1163.82 -1494.79 -1495.37 -1495.85 -1496.11 -1496.21 1496.21 1496.11 1495.85 1495.37 1494.79 1163.82 1163.84 1163.96 1164.35 1165.15 831.436 831.538 831.768 832.087 832.124 498.945 499.029 499.171 499.271 499.295 166.332 166.361 166.401 166.428 166.429 -166.332 -166.361 -166.401 -166.428 -166.429 -498.945 -499.029 -499.171 -499.271 -499.295 -831.436 -831.538 -831.768 -832.087 -832.124 -1163.82 -1163.84 -1163.96 -1164.35 -1165.15 -1496.21 -1496.11 -1495.85 -1495.37 -1494.79 
</DataArray>
<DataArray Name="Stress_22" format="ascii" type="Float64">
1498.29 1497.56 1497.73 1497.78 1497.8 1165.94 1164.62 1164.68 1164.81 1164.86 832.889 832.096 831.835 831.887 831.943 499.741 499.329 499.121 499.088 499.111 166.58 166.454 166.378 166.358 166.36 -166.58 -166.454 -166.378 -166.358 -166.36 -499.741 -499.329 -499.121 -499.088 -499.111 -832.889 -832.096 -831.835 -831.887 -831.943 -1165.94 -1164.62 -1164.68 -1164.81 -1164.86 -1498.29 -1497.56 -1497.73 -1497.78 -1497.8 1497.8 1497.78 1497.73 1497.56 1498.29 1164.86 1164.81 1164.68 1164.62 1165.94 831.943 831.887 831.835 832.096 832.889 499.111 499.088 499.121 499.329 499.741 166.36 166.358 166.378 166.454 166.58 -166.36 -166.358 -166.378 -166.454 -166.58 -499.111 -499.088 -499.121 -499.329 -499.741 -831.943 -831.887 -831.835 -832.096 -832.889 -1164.86 -1164.81 -1164.68 -1164.62 -1165.94 -1497.8 -1497.78 -1497.73 -1497.56 -1498.29 
</DataArray>
<DataArray Name="Stress_12" format="ascii" type="Float64">
-0.904438 -0.617326 -0.267161 -0.110937 -0.0302816 0.271438 -0.286655 -0.301384 -0.164423 -0.0499145 0.237749 0.211938 0.00772217 -0.0369741 -0.0160958 0.205138 0.330156 0.237667 0.115111 0.0328582 0.190114 0.361886 0.323157 0.197222 0.0634336 0.190114 0.361886 0.323157 0.197222 0.0634336 0.205138 0.330156 0.237667 0.115111 0.0328582 0.237749 0.211938 0.00772217 -0.0369741 -0.0160958 0.271438 -0.286655 -0.301384 -0.164423 -0.0499145 -0.904438 -0.617326 -0.267161 -0.110937 -0.0302816 0.0302816 0.110937 0.267161 0.617326 0.904438 0.0499145 0.164423 0.301384 0.286655 -0.271438 0.0160958 0.0369741 -0.00772217 -0.211938 -0.237749 -0.0328582 -0.115111 -0.237667 -0.330156 -0.205138 -0.0634336 -0.197222 -0.323157 -0.361886 -0.190114 -0.0634336 -0.197222 -0.323157 -0.361886 -0.190114 -0.0328582 -0.115111 -0.237667 -0.330156 -0.205138 0.0160958 0.0369741 -0.00772217 -0.211938 -0.237749 0.0499145 0.164423 0.301384 0.286655 -0.271438 0.0302816 0.110937 0.267161 0.617326 0.904438 
</DataArray>
<DataArray Name="Stress_13" format="ascii" type="Float64">
0 0 0 0 0 0 0 0 0 0 0 0 0 0 0 0 0 0 0 0 0 0 0 0 0 0 0 0 0 0 0 0 0 0 0 0 0 0 0 0 0 0 0 0 0 0 0 0 0 0 0 0 0 0 0 0 0 0 0 0 0 0 0 0 0 0 0 0 0 0 0 0 0 0 0 0 0 0 0 0 0 0 0 0 0 0 0 0 0 0 0 0 0 0 0 0 0 0 0 0 
</DataArray>
<DataArray Name="Stress_23" format="ascii" type="Float64">
0 0 0 0 0 0 0 0 0 0 0 0 0 0 0 0 0 0 0 0 0 0 0 0 0 0 0 0 0 0 0 0 0 0 0 0 0 0 0 0 0 0 0 0 0 0 0 0 0 0 0 0 0 0 0 0 0 0 0 0 0 0 0 0 0 0 0 0 0 0 0 0 0 0 0 0 0 0 0 0 0 0 0 0 0 0 0 0 0 0 0 0 0 0 0 0 0 0 0 0 
</DataArray>
<DataArray Name="Stress_33" format="ascii" type="Float64">
594.116 594.087 594.216 594.278 594.304 462.718 462.293 462.229 462.23 462.236 330.503 330.337 330.221 330.185 330.176 198.307 198.22 198.158 198.123 198.111 66.1017 66.0764 66.0558 66.0437 66.0384 -66.1017 -66.0764 -66.0558 -66.0437 -66.0384 -198.307 -198.22 -198.158 -198.123 -198.111 -330.503 -330.337 -330.221 -330.185 -330.176 -462.718 -462.293 -462.229 -462.23 -462.236 -594.116 -594.087 -594.216 -594.278 -594.304 594.304 594.278 594.216 594.087 594.116 462.236 462.23 462.229 462.293 462.718 330.176 330.185 330.221 330.337 330.503 198.111 198.123 198.158 198.22 198.307 66.0384 66.0437 66.0558 66.0764 66.1017 -66.0384 -66.0437 -66.0558 -66.0764 -66.1017 -198.111 -198.123 -198.158 -198.22 -198.307 -330.176 -330.185 -330.221 -330.337 -330.503 -462.236 -462.23 -462.229 -462.293 -462.718 -594.304 -594.278 -594.216 -594.087 -594.116 
</DataArray>
</CellData>
<Points>
<DataArray NumberOfComponents="3" format="ascii" type="Float64">
-0.05 -0.05 0 -0.05 0 0 -0.05 -0.04 0 -0.05 -0.03 0 -0.05 -0.02 0 -0.05 -0.01 0 0 0 0 -0.04 0 0 -0.03 0 0 -0.02 0 0 -0.01 0 0 0 -0.05 0 0 -0.01 0 0 -0.02 0 0 -0.03 0 0 -0.04 0 -0.01 -0.05 0 -0.02 -0.05 0 -0.03 -0.05 0 -0.04 -0.05 0 -0.04 -0.04 0 -0.04 -0.03 0 -0.04 -0.02 0 -0.04 -0.01 0 -0.03 -0.04 0 -0.03 -0.03 0 -0.03 -0.02 0 -0.03 -0.01 0 -0.02 -0.04 0 -0.02 -0.03 0 -0.02 -0.02 0 -0.02 -0.01 0 -0.01 -0.04 0 -0.01 -0.03 0 -0.01 -0.02 0 -0.01 -0.01 0 -0.05 0.05 0 -0.05 0.01 0 -0.05 0.02 0 -0.05 0.03 0 -0.05 0.04 0 0 0.05 0 -0.04 0.05 0 -0.03 0.05 0 -0.02 0.05 0 -0.01 0.05 0 0 0.04 0 0 0.03 0 0 0.02 0 0 0.01 0 -0.04 0.01 0 -0.04 0.02 0 -0.04 0.03 0 -0.04 0.04 0 -0.03 0.01 0 -0.03 0.02 0 -0.03 0.03 0 -0.03 0.04 0 -0.02 0.01 0 -0.02 0.02 0 -0.02 0.03 0 -0.02 0.04 0 -0.01 0.01 0 -0.01 0.02 0 -0.01 0.03 0 -0.01 0.04 0 0.05 0 0 0.01 0 0 0.02 0 0 0.03 0 0 0.04 0 0 0.05 -0.05 0 0.05 -0.01 0 0.05 -0.02 0 0.05 -0.03 0 0.05 -0.04 0 0.04 -0.05 0 0.03 -0.05 0 0.02 -0.05 0 0.01 -0.05 0 0.01 -0.04 0 0.01 -0.03 0 0.01 -0.02 0 0.01 -0.01 0 0.02 -0.04 0 0.02 -0.03 0 0.02 -0.02 0 0.02 -0.01 0 0.03 -0.04 0 0.03 -0.03 0 0.03 -0.02 0 0.03 -0.01 0 0.04 -0.04 0 0.04 -0.03 0 0.04 -0.02 0 0.04 -0.01 0 0.05 0.05 0 0.01 0.05 0 0.02 0.05 0 0.03 0.05 0 0.04 0.05 0 0.05 0.04 0 0.05 0.03 0 0.05 0.02 0 0.05 0.01 0 0.01 0.01 0 0.01 0.02 0 0.01 0.03 0 0.01 0.04 0 0.02 0.01 0 0.02 0.02 0 0.02 0.03 0 0.02 0.04 0 0.03 0.01 0 0.03 0.02 0 0.03 0.03 0 0.03 0.04 0 0.04 0.01 0 0.04 0.02 0 0.04 0.03 0 0.04 0.04 0 
</DataArray>
</Points>
<Cells>
<DataArray Name="connectivity" format="ascii" type="Int64">
0 19 20 2 19 18 24 20 18 17 28 24 17 16 32 28 16 11 15 32 2 20 21 3 20 24 25 21 24 28 29 25 28 32 33 29 32 15 14 33 3 21 22 4 21 25 26 22 25 29 30 26 29 33 34 30 33 14 13 34 4 22 23 5 22 26 27 23 26 30 31 27 30 34 35 31 34 13 12 35 5 23 7 1 23 27 8 7 27 31 9 8 31 35 10 9 35 12 6 10 1 7 50 37 7 8 54 50 8 9 58 54 9 10 62 58 10 6 49 62 37 50 51 38 50 54 55 51 54 58 59 55 58 62 63 59 62 49 48 63 38 51 52 39 51 55 56 52 55 59 60 56 59 63 64 60 63 48 47 64 39 52 53 40 52 56 57 53 56 60 61 57 60 64 65 61 64 47 46 65 40 53 42 36 53 57 43 42 57 61 44 43 61 65 45 44 65 46 41 45 11 79 80 15 79 78 84 80 78 77 88 84 77 76 92 88 76 71 75 92 15 80 81 14 80 84 85 81 84 88 89 85 88 92 93 89 92 75 74 93 14 81 82 13 81 85 86 82 85 89 90 86 89 93 94 90 93 74 73 94 13 82 83 12 82 86 87 83 86 90 91 87 90 94 95 91 94 73 72 95 12 83 67 6 83 87 68 67 87 91 69 68 91 95 70 69 95 72 66 70 6 67 105 49 67 68 109 105 68 69 113 109 69 70 117 113 70 66 104 117 49 105 106 48 105 109 110 106 109 113 114 110 113 117 118 114 117 104 103 118 48 106 107 47 106 110 111 107 110 114 115 111 114 118 119 115 118 103 102 119 47 107 108 46 107 111 112 108 111 115 116 112 115 119 120 116 119 102 101 120 46 108 97 41 108 112 98 97 112 116 99 98 116 120 100 99 120 101 96 100 
</DataArray>
<DataArray Name="offsets" format="ascii" type="Int64">
4 8 12 16 20 24 28 32 36 40 44 48 52 56 60 64 68 72 76 80 84 88 92 96 100 104 108 112 116 120 124 128 132 136 140 144 148 152 156 160 164 168 172 176 180 184 188 192 196 200 204 208 212 216 220 224 228 232 236 240 244 248 252 256 260 264 268 272 276 280 284 288 292 296 300 304 308 312 316 320 324 328 332 336 340 344 348 352 356 360 364 368 372 376 380 384 388 392 396 400 
</DataArray>
<DataArray Name="types" format="ascii" type="Int8">
9 9 9 9 9 9 9 9 9 9 9 9 9 9 9 9 9 9 9 9 9 9 9 9 9 9 9 9 9 9 9 9 9 9 9 9 9 9 9 9 9 9 9 9 9 9 9 9 9 9 9 9 9 9 9 9 9 9 9 9 9 9 9 9 9 9 9 9 9 9 9 9 9 9 9 9 9 9 9 9 9 9 9 9 9 9 9 9 9 9 9 9 9 9 9 9 9 9 9 9 
</DataArray>
</Cells>
</Piece>
</UnstructuredGrid>
</VTKFile>
