<?xml version="1.0"?>
<VTKFile byte_order="LittleEndian" type="UnstructuredGrid" version="0.1">
<UnstructuredGrid>
<Piece NumberOfCells="336" NumberOfPoints="440">
<PointData>
<DataArray Name="Warping_X" format="ascii" type="Float64">
0 0 0 0 0 0 0 0 0 0 0 0 0 0 0 0 0 0 0 0 0 0 0 0 0 0 0 0 0 0 0 0 0 0 0 0 0 0 0 0 0 0 0 0 0 0 0 0 0 0 0 0 0 0 0 0 0 0 0 0 0 0 0 0 0 0 0 0 0 0 0 0 0 0 0 0 0 0 0 0 0 0 0 0 0 0 0 0 0 0 0 0 0 0 0 0 0 0 0 0 0 0 0 0 0 0 0 0 0 0 0 0 0 0 0 0 0 0 0 0 0 0 0 0 0 0 0 0 0 0 0 0 0 0 0 0 0 0 0 0 0 0 0 0 0 0 0 0 0 0 0 0 0 0 0 0 0 0 0 0 0 0 0 0 0 0 0 0 0 0 0 0 0 0 0 0 0 0 0 0 0 0 0 0 0 0 0 0 0 0 0 0 0 0 0 0 0 0 0 0 0 0 0 0 0 0 0 0 0 0 0 0 0 0 0 0 0 0 0 0 -0 0 0 0 0 0 0 0 0 0 0 0 0 0 0 0 0 0 0 0 0 0 0 0 0 0 0 0 0 0 0 0 0 0 0 0 0 0 0 0 0 0 0 0 0 0 0 0 0 0 0 0 0 0 0 0 0 0 0 0 0 0 0 0 0 0 0 0 0 0 0 0 0 0 0 0 0 0 0 0 0 0 0 0 0 0 0 0 0 0 0 0 0 0 0 0 0 0 0 0 0 0 0 0 0 0 0 0 0 0 -0 0 0 0 0 0 0 0 0 0 0 0 0 0 0 0 0 0 0 0 0 0 0 0 0 0 0 0 0 0 0 0 0 0 0 0 0 0 0 0 0 0 0 0 0 0 0 0 0 0 0 -0 0 0 0 0 0 0 0 0 0 0 0 0 0 0 0 0 0 0 0 0 0 0 0 0 0 0 0 0 0 0 0 0 0 0 0 0 0 0 0 0 0 0 0 0 0 0 0 0 0 0 0 0 0 0 0 0 0 0 
</DataArray>
<DataArray Name="Warping_Y" format="ascii" type="Float64">
0 0 0 0 0 0 0 0 0 0 0 0 0 0 0 0 0 0 0 0 0 0 0 0 0 0 0 0 0 0 0 0 0 0 0 0 0 0 0 0 0 0 0 0 0 0 0 0 0 0 0 0 0 0 0 0 0 0 0 0 0 0 0 0 0 0 0 0 0 0 0 0 0 0 0 0 0 0 0 0 0 0 0 0 0 0 0 0 0 0 0 0 0 0 0 0 0 0 0 0 0 0 0 0 0 0 0 0 0 0 0 0 0 0 0 0 0 0 0 0 0 0 0 0 0 0 0 0 0 0 0 0 0 0 0 0 0 0 0 0 0 0 0 0 0 0 0 0 0 0 0 0 0 0 0 0 0 0 0 0 0 0 0 0 0 0 0 0 0 0 0 0 0 0 0 0 0 0 0 0 0 0 0 0 0 0 0 0 0 0 0 0 0 0 0 0 0 0 0 0 0 0 0 0 0 0 0 0 0 0 0 0 0 0 0 0 0 0 0 0 -0 0 0 0 0 -0 0 0 0 0 0 0 0 0 0 0 0 0 0 0 0 0 0 0 0 0 0 0 0 0 0 0 0 0 0 0 0 0 0 0 0 0 0 0 0 0 0 0 0 0 0 0 0 0 0 0 0 0 0 0 0 0 0 0 0 0 0 0 0 0 0 0 0 0 0 0 0 0 0 0 0 0 0 0 0 0 0 0 0 0 0 0 0 0 0 0 0 0 0 0 0 0 0 0 0 0 0 0 0 0 -0 0 0 0 0 0 0 0 0 0 0 0 0 0 0 0 0 0 0 0 0 0 0 0 0 0 0 -0 0 0 0 0 0 0 0 0 0 0 0 0 0 0 0 0 0 0 0 0 0 0 0 0 0 0 0 0 0 0 0 0 0 0 0 0 0 0 0 0 0 0 0 0 0 0 0 0 0 0 0 0 0 0 0 0 0 0 0 0 0 0 0 0 0 0 0 0 0 0 0 0 0 0 0 0 0 0 0 0 0 0 
</DataArray>
<DataArray Name="Warping_Z" format="ascii" type="Float64">
0 0 0 0 0 0 0 0 0 0 0 0 0 0 0 0 0 0 0 0 0 0 0 0 0 0 0 0 0 0 0 0 0 0 0 0 0 0 0 0 0 0 0 0 0 0 0 0 0 0 0 0 0 0 0 0 0 0 0 0 0 0 0 0 0 0 0 0 0 0 0 0 0 0 0 0 0 0 0 0 0 0 0 0 0 0 0 0 0 0 0 0 0 0 0 0 0 0 0 0 0 0 0 0 0 0 0 0 0 0 0 0 0 0 0 0 0 0 0 0 0 0 0 0 0 0 0 0 0 0 0 0 0 0 0 0 0 0 0 0 0 0 0 0 0 0 0 0 0 0 0 0 0 0 0 0 0 0 0 0 0 0 0 0 0 0 0 0 0 0 0 0 0 0 0 0 0 0 0 0 0 0 0 0 0 0 0 0 0 0 0 0 0 0 0 0 0 0 0 0 0 0 0 0 0 0 0 0 0 0 0 0 0 0 0 0 0 0 0 0 0 0 0 0 0 0 0 0 0 0 0 0 0 0 0 0 0 0 0 0 0 0 0 0 0 0 0 0 0 0 0 0 0 0 0 0 0 0 0 0 0 0 0 0 0 0 0 0 0 0 0 0 0 0 0 0 0 0 0 0 0 0 0 0 0 0 0 0 0 0 0 0 0 0 0 0 0 0 0 0 0 0 0 0 0 0 0 0 0 0 0 0 0 0 0 0 0 0 0 0 0 0 0 0 0 0 0 0 0 0 0 0 0 0 0 0 0 0 0 0 0 0 0 0 0 0 0 0 0 0 0 0 0 0 0 0 0 0 0 0 0 0 0 0 0 0 0 0 0 0 0 0 0 0 0 0 0 0 0 0 0 0 0 0 0 0 0 0 0 0 0 0 0 0 0 0 0 0 0 0 0 0 0 0 0 0 0 0 0 0 0 0 0 0 0 0 0 0 0 0 0 0 0 0 0 0 0 0 0 0 0 0 0 0 0 0 0 0 0 0 
</DataArray>
</PointData>
<CellData>
<DataArray Name="MaterialId" format="ascii" type="Float64">
4 3 3 3 3 3 3 3 3 3 3 3 3 3 3 3 3 3 3 3 3 3 3 3 3 3 3 3 1 1 1 1 1 1 1 1 1 1 3 3 3 3 3 1 3 3 3 3 3 1 3 3 3 3 3 1 3 3 3 3 3 1 3 3 1 1 1 1 4 1 3 1 1 1 3 3 3 3 3 1 3 3 3 3 3 4 3 3 3 3 3 4 3 3 3 3 3 4 4 3 3 2 2 4 2 2 2 2 2 4 2 2 2 4 4 4 4 4 4 4 3 1 4 4 4 2 4 2 1 4 4 4 1 4 3 4 4 4 4 4 3 1 4 4 2 1 1 3 3 4 3 3 3 3 1 3 3 1 3 4 4 4 4 4 3 3 3 3 4 2 1 1 4 3 1 3 3 3 1 3 3 1 3 3 1 1 4 3 1 1 1 3 3 4 4 4 1 4 1 4 3 4 3 4 4 2 3 2 4 3 4 4 2 3 4 3 4 2 3 2 3 3 2 4 3 3 2 4 3 3 3 3 3 4 3 4 3 3 2 3 4 3 4 1 3 2 4 3 1 3 4 3 4 4 1 3 4 4 4 1 1 4 4 4 2 3 4 3 3 3 4 1 4 4 4 4 3 3 4 3 1 3 4 3 3 3 3 4 4 3 1 4 3 4 3 3 3 3 3 3 3 4 3 3 3 4 1 3 3 1 3 4 3 3 3 4 4 4 1 1 1 1 1 4 1 1 3 3 3 4 3 3 3 3 3 3 
</DataArray>
<DataArray Name="FiberAngle" format="ascii" type="Float64">
0 0 0 0 0 0 0 0 0 0 0 0 0 0 0 0 0 0 0 0 0 0 0 0 0 0 0 0 0 0 0 0 0 0 0 0 0 0 0 0 0 0 0 0 0 0 0 0 0 0 0 0 0 0 0 0 0 0 0 0 0 0 0 0 0 0 0 0 0 0 0 0 0 0 0 0 0 0 0 0 0 0 0 0 0 0 0 0 0 0 0 0 0 0 0 0 0 0 0 0 0 0 0 0 0 0 0 0 0 0 0 0 0 0 0 0 0 0 0 0 0 0 0 0 0 0 0 0 0 0 0 0 0 0 0 0 0 0 0 0 0 0 0 0 0 0 0 0 0 0 0 0 0 0 0 0 0 0 0 0 0 0 0 0 0 0 0 0 0 0 0 0 0 0 0 0 0 0 0 0 0 0 0 0 0 0 0 0 0 0 0 0 0 0 0 0 0 0 0 0 0 0 0 0 0 0 0 0 0 0 0 0 0 0 0 0 0 0 0 0 0 0 0 0 0 0 0 0 0 0 0 0 0 0 0 0 0 0 0 0 0 0 0 0 0 0 0 0 0 0 0 0 0 0 0 0 0 0 0 0 0 0 0 0 0 0 0 0 0 0 0 0 0 0 0 0 0 0 0 0 0 0 0 0 0 0 0 0 0 0 0 0 0 0 0 0 0 0 0 0 0 0 0 0 0 0 0 0 0 0 0 0 0 0 0 0 0 0 0 0 0 0 0 0 0 0 0 0 0 0 0 0 0 0 0 0 
</DataArray>
<DataArray Name="Strain_11" format="ascii" type="Float64">
0 0 0 0 0 0 0 0 0 0 0 0 0 0 0 0 0 0 0 0 0 0 0 0 0 0 0 0 0 0 0 0 0 0 0 0 0 0 0 0 0 0 0 0 0 0 0 0 0 0 0 0 0 0 0 0 0 0 0 0 0 0 0 0 0 0 0 0 0 0 0 0 0 0 0 0 0 0 0 0 0 0 0 0 0 0 0 0 0 0 0 0 0 0 0 0 0 0 0 0 0 0 0 0 0 0 0 0 0 0 0 0 0 0 0 0 0 0 0 0 0 0 0 0 0 0 0 0 0 0 0 0 0 0 0 0 0 0 0 0 0 0 0 0 0 0 0 0 0 0 0 0 0 0 0 0 0 0 0 0 0 0 0 0 0 0 0 0 0 0 0 0 0 0 0 0 0 0 0 0 0 0 0 0 0 0 0 0 0 0 0 0 0 0 0 0 0 0 0 0 0 0 0 0 0 0 0 0 0 0 0 0 0 0 0 0 0 0 0 0 0 0 0 0 0 0 0 0 0 0 0 0 0 0 0 0 0 0 0 0 0 0 0 0 0 0 0 0 0 0 0 0 0 0 0 0 0 0 0 0 0 0 0 0 0 0 0 0 0 0 0 0 0 0 0 0 0 0 0 0 0 0 0 0 0 0 0 0 0 0 0 0 0 0 0 0 0 0 0 0 0 0 0 0 0 0 0 0 0 0 0 0 0 0 0 0 0 0 0 0 0 0 0 0 0 0 0 0 0 0 0 0 0 0 0 0 
</DataArray>
<DataArray Name="Strain_22" format="ascii" type="Float64">
0 0 0 0 0 0 0 0 0 0 0 0 0 0 0 0 0 0 0 0 0 0 0 0 0 0 0 0 0 0 0 0 0 0 0 0 0 0 0 0 0 0 0 0 0 0 0 0 0 0 0 0 0 0 0 0 0 0 0 0 0 0 0 0 0 0 0 0 0 0 0 0 0 0 0 0 0 0 0 0 0 0 0 0 0 0 0 0 0 0 0 0 0 0 0 0 0 0 0 0 0 0 0 0 0 0 0 0 0 0 0 0 0 0 0 0 0 0 0 0 0 0 0 0 0 0 0 0 0 0 0 0 0 0 0 0 0 0 0 0 0 0 0 0 0 0 0 0 0 0 0 0 0 0 0 0 0 0 0 0 0 0 0 0 0 0 0 0 0 0 0 0 0 0 0 0 0 0 0 0 0 0 0 0 0 0 0 0 0 0 0 0 0 0 0 0 0 0 0 0 0 0 0 0 0 0 0 0 0 0 0 0 0 0 0 0 0 0 0 0 0 0 0 0 0 0 0 0 0 0 0 0 0 0 0 0 0 0 0 0 0 0 0 0 0 0 0 0 0 0 0 0 0 0 0 0 0 0 0 0 0 0 0 0 0 0 0 0 0 0 0 0 0 0 0 0 0 0 0 0 0 0 0 0 0 0 0 0 0 0 0 0 0 0 0 0 0 0 0 0 0 0 0 0 0 0 0 0 0 0 0 0 0 0 0 0 0 0 0 0 0 0 0 0 0 0 0 0 0 0 0 0 0 0 0 0 
</DataArray>
<DataArray Name="Strain_12" format="ascii" type="Float64">
0 0 0 0 0 0 0 0 0 0 0 0 0 0 0 0 0 0 0 0 0 0 0 0 0 0 0 0 0 0 0 0 0 0 0 0 0 0 0 0 0 0 0 0 0 0 0 0 0 0 0 0 0 0 0 0 0 0 0 0 0 0 0 0 0 0 0 0 0 0 0 0 0 0 0 0 0 0 0 0 0 0 0 0 0 0 0 0 0 0 0 0 0 0 0 0 0 0 0 0 0 0 0 0 0 0 0 0 0 0 0 0 0 0 0 0 0 0 0 0 0 0 0 0 0 0 0 0 0 0 0 0 0 0 0 0 0 0 0 0 0 0 0 0 0 0 0 0 0 0 0 0 0 0 0 0 0 0 0 0 0 0 0 0 0 0 0 0 0 0 0 0 0 0 0 0 0 0 0 0 0 0 0 0 0 0 0 0 0 0 0 0 0 0 0 0 0 0 0 0 0 0 0 0 0 0 0 0 0 0 0 0 0 0 0 0 0 0 0 0 0 0 0 0 0 0 0 0 0 0 0 0 0 0 0 0 0 0 0 0 0 0 0 0 0 0 0 0 0 0 0 0 0 0 0 0 0 0 0 0 0 0 0 0 0 0 0 0 0 0 0 0 0 0 0 0 0 0 0 0 0 0 0 0 0 0 0 0 0 0 0 0 0 0 0 0 0 0 0 0 0 0 0 0 0 0 0 0 0 0 0 0 0 0 0 0 0 0 0 0 0 0 0 0 0 0 0 0 0 0 0 0 0 0 0 0 
</DataArray>
<DataArray Name="Strain_13" format="ascii" type="Float64">
1 1 1 1 1 1 1 1 1 1 1 1 1 1 1 1 1 1 1 1 1 1 1 1 1 1 1 1 1 1 1 1 1 1 1 1 1 1 1 1 1 1 1 1 1 1 1 1 1 1 1 1 1 1 1 1 1 1 1 1 1 1 1 1 1 1 1 1 1 1 1 1 1 1 1 1 1 1 1 1 1 1 1 1 1 1 1 1 1 1 1 1 1 1 1 1 1 1 1 1 1 1 1 1 1 1 1 1 1 1 1 1 1 1 1 1 1 1 1 1 1 1 1 1 1 1 1 1 1 1 1 1 1 1 1 1 1 1 1 1 1 1 1 1 1 1 1 1 1 1 1 1 1 1 1 1 1 1 1 1 1 1 1 1 1 1 1 1 1 1 1 1 1 1 1 1 1 1 1 1 1 1 1 1 1 1 1 1 1 1 1 1 1 1 1 1 1 1 1 1 1 1 1 1 1 1 1 1 1 1 1 1 1 1 1 1 1 1 1 1 1 1 1 1 1 1 1 1 1 1 1 1 1 1 1 1 1 1 1 1 1 1 1 1 1 1 1 1 1 1 1 1 1 1 1 1 1 1 1 1 1 1 1 1 1 1 1 1 1 1 1 1 1 1 1 1 1 1 1 1 1 1 1 1 1 1 1 1 1 1 1 1 1 1 1 1 1 1 1 1 1 1 1 1 1 1 1 1 1 1 1 1 1 1 1 1 1 1 1 1 1 1 1 1 1 1 1 1 1 1 1 1 1 1 1 1 
</DataArray>
<DataArray Name="Strain_23" format="ascii" type="Float64">
-1.20842e-09 3.61004e-09 3.46524e-09 3.20545e-09 2.94008e-09 2.59384e-09 2.22342e-09 1.82252e-09 1.39404e-09 9.47989e-10 4.99275e-10 5.45284e-11 -3.91924e-10 -8.38933e-10 -1.27323e-09 -1.68109e-09 -2.05137e-09 -2.37651e-09 -2.64962e-09 -2.86302e-09 -3.01629e-09 -3.11341e-09 -3.14164e-09 -3.09116e-09 -2.9211e-09 -2.75448e-09 -2.19224e-09 9.12456e-11 1.55942e-10 8.88572e-11 3.16706e-11 8.84526e-11 -6.82728e-11 -1.20945e-10 -1.84589e-10 -2.56106e-10 -3.73932e-10 3.38071e-11 -3.64762e-10 6.62492e-11 2.64631e-10 1.96265e-10 1.76395e-10 -1.92163e-11 4.923e-11 -3.51791e-11 -1.44901e-10 -2.09605e-10 -2.34093e-10 -6.79322e-11 -3.59037e-11 -3.39898e-10 -7.25271e-10 -9.94485e-10 -1.22264e-09 -1.21832e-10 -1.58524e-09 -1.66339e-09 -1.67629e-09 -1.6419e-09 -1.57314e-09 -1.8387e-10 -1.3752e-09 -6.18103e-10 -5.98285e-10 -5.86328e-10 -4.58587e-10 -2.63548e-10 -1.19312e-09 -2.03595e-11 -1.54008e-10 2.83032e-10 4.65889e-10 -3.56018e-10 4.34643e-10 2.6184e-09 2.95275e-09 3.20291e-09 3.44023e-09 -4.66095e-10 3.81756e-09 3.97126e-09 4.11152e-09 4.23476e-09 4.33379e-09 -7.00105e-10 4.44204e-09 4.46441e-09 4.46898e-09 4.45515e-09 4.42795e-09 -1.63433e-10 4.33778e-09 4.2751e-09 4.20865e-09 4.14506e-09 4.08085e-09 -2.71618e-10 -1.22935e-09 3.71201e-09 -1.3348e-11 -4.17687e-10 8.19351e-10 -3.35708e-10 4.41054e-10 2.45161e-10 -4.77454e-10 6.47474e-10 -5.76202e-10 -4.00515e-10 -7.22379e-10 -7.75121e-10 4.2573e-10 -4.60464e-10 2.79794e-10 -5.15658e-10 2.26076e-09 -5.56774e-10 -1.4257e-10 1.39774e-09 2.29447e-10 -3.29124e-10 -5.63292e-10 -1.21056e-09 -5.34444e-10 -6.40473e-10 -4.63105e-10 2.3295e-11 4.1767e-10 -3.74265e-10 -6.1591e-10 -1.41829e-10 1.5489e-10 1.09709e-09 -7.29423e-11 3.52122e-09 -4.37087e-11 -3.39187e-10 -6.48173e-10 -1.4233e-09 4.38936e-09 -5.80858e-10 -9.55468e-10 2.59531e-09 6.23417e-10 -1.94357e-11 -1.91458e-11 -5.33127e-10 3.84855e-09 -1.44088e-09 4.14205e-09 4.26492e-09 -7.88732e-10 4.29457e-09 -6.43179e-10 -6.62599e-10 4.36323e-09 1.40335e-10 -8.81587e-10 -1.08513e-09 -1.18822e-09 -8.53476e-10 2.66477e-09 -4.53391e-10 3.95809e-09 4.14009e-09 4.49451e-09 3.66786e-09 2.87136e-09 1.52234e-10 -5.68363e-10 2.9455e-10 2.18036e-10 -1.1667e-09 -4.65411e-10 4.52554e-09 2.48599e-09 4.41235e-09 -1.77695e-10 1.84181e-09 -2.33179e-09 -1.91391e-11 1.21485e-10 4.42999e-09 1.38256e-10 4.36725e-10 -5.5217e-11 -1.42492e-09 -1.78124e-10 2.95486e-10 4.26231e-10 9.94438e-11 3.7031e-09 8.70057e-10 -7.09358e-10 3.09625e-09 -3.26758e-10 1.59593e-09 5.16305e-10 -3.09231e-10 -1.60449e-09 -1.13042e-09 3.72633e-09 -7.38182e-10 1.84398e-09 -3.59178e-10 4.49082e-09 8.8505e-10 -1.35592e-09 3.36965e-09 2.4365e-09 3.18837e-09 3.94117e-10 6.89614e-10 -5.3847e-10 -1.69391e-09 2.73976e-09 -5.32358e-10 -3.09194e-09 3.13839e-10 4.01604e-09 3.02651e-09 -4.70969e-10 6.35444e-10 -1.4545e-09 4.47981e-09 -5.91339e-10 -9.04667e-10 4.36034e-09 2.63279e-09 -2.91312e-09 -1.71045e-09 1.77116e-10 3.26718e-09 -2.75681e-09 3.33388e-09 -2.1483e-09 4.45187e-09 1.22922e-10 -1.6195e-10 2.99039e-09 4.17763e-09 3.43535e-09 3.24682e-11 -3.08251e-09 -6.96316e-10 3.47218e-09 2.99082e-09 1.12229e-10 -1.6782e-09 3.50072e-09 -1.39364e-09 -1.03574e-09 3.06136e-09 -1.76888e-10 3.87703e-09 2.32474e-09 3.5334e-09 2.0077e-09 -4.65511e-10 1.40216e-10 1.98644e-10 1.7007e-09 3.38959e-09 -8.32586e-10 4.46939e-09 3.52426e-09 3.23389e-09 4.00195e-09 -1.60837e-09 3.49249e-09 -2.59051e-10 3.40459e-09 7.98836e-10 3.2938e-09 5.04542e-10 3.68531e-09 4.23401e-09 -8.03816e-10 -1.61958e-10 -6.11513e-10 -2.60975e-09 -1.20887e-09 3.6788e-09 3.47248e-09 1.06997e-12 -1.50057e-09 3.53629e-09 -3.90054e-10 3.51272e-09 -3.92922e-10 2.0655e-09 3.42353e-09 8.52195e-10 2.28082e-09 -1.4325e-09 1.42944e-09 9.84912e-10 5.40992e-10 3.6435e-09 -3.4396e-10 -1.2453e-09 -1.22206e-09 -1.63054e-09 -2.00302e-09 4.17598e-10 -3.27214e-10 -2.82889e-09 -2.98833e-09 5.50877e-10 -3.1265e-09 -1.38704e-09 3.67482e-09 3.60675e-09 3.46695e-09 3.77127e-09 3.53847e-09 -5.03971e-10 2.85818e-11 -1.71662e-11 -6.81954e-11 -1.21356e-10 -1.85724e-10 1.63312e-10 -3.75536e-10 -3.60364e-10 -3.34416e-10 4.40159e-09 2.61152e-10 -5.23557e-10 1.61766e-10 1.06933e-10 3.81139e-11 -3.76473e-11 -1.29503e-10 -1.59116e-10 
</DataArray>
<DataArray Name="Strain_33" format="ascii" type="Float64">
0 0 0 0 0 0 0 0 0 0 0 0 0 0 0 0 0 0 0 0 0 0 0 0 0 0 0 0 0 0 0 0 0 0 0 0 0 0 0 0 0 0 0 0 0 0 0 0 0 0 0 0 0 0 0 0 0 0 0 0 0 0 0 0 0 0 0 0 0 0 0 0 0 0 0 0 0 0 0 0 0 0 0 0 0 0 0 0 0 0 0 0 0 0 0 0 0 0 0 0 0 0 0 0 0 0 0 0 0 0 0 0 0 0 0 0 0 0 0 0 0 0 0 0 0 0 0 0 0 0 0 0 0 0 0 0 0 0 0 0 0 0 0 0 0 0 0 0 0 0 0 0 0 0 0 0 0 0 0 0 0 0 0 0 0 0 0 0 0 0 0 0 0 0 0 0 0 0 0 0 0 0 0 0 0 0 0 0 0 0 0 0 0 0 0 0 0 0 0 0 0 0 0 0 0 0 0 0 0 0 0 0 0 0 0 0 0 0 0 0 0 0 0 0 0 0 0 0 0 0 0 0 0 0 0 0 0 0 0 0 0 0 0 0 0 0 0 0 0 0 0 0 0 0 0 0 0 0 0 0 0 0 0 0 0 0 0 0 0 0 0 0 0 0 0 0 0 0 0 0 0 0 0 0 0 0 0 0 0 0 0 0 0 0 0 0 0 0 0 0 0 0 0 0 0 0 0 0 0 0 0 0 0 0 0 0 0 0 0 0 0 0 0 0 0 0 0 0 0 0 0 0 0 0 0 0 
</DataArray>
<DataArray Name="Stress_11" format="ascii" type="Float64">
0 0 0 0 0 0 0 0 0 0 0 0 0 0 0 0 0 0 0 0 0 0 0 0 0 0 0 0 0 0 0 0 0 0 0 0 0 0 0 0 0 0 0 0 0 0 0 0 0 0 0 0 0 0 0 0 0 0 0 0 0 0 0 0 0 0 0 0 0 0 0 0 0 0 0 0 0 0 0 0 0 0 0 0 0 0 0 0 0 0 0 0 0 0 0 0 0 0 0 0 0 0 0 0 0 0 0 0 0 0 0 0 0 0 0 0 0 0 0 0 0 0 0 0 0 0 0 0 0 0 0 0 0 0 0 0 0 0 0 0 0 0 0 0 0 0 0 0 0 0 0 0 0 0 0 0 0 0 0 0 0 0 0 0 0 0 0 0 0 0 0 0 0 0 0 0 0 0 0 0 0 0 0 0 0 0 0 0 0 0 0 0 0 0 0 0 0 0 0 0 0 0 0 0 0 0 0 0 0 0 0 0 0 0 0 0 0 0 0 0 0 0 0 0 0 0 0 0 0 0 0 0 0 0 0 0 0 0 0 0 0 0 0 0 0 0 0 0 0 0 0 0 0 0 0 0 0 0 0 0 0 0 0 0 0 0 0 0 0 0 0 0 0 0 0 0 0 0 0 0 0 0 0 0 0 0 0 0 0 0 0 0 0 0 0 0 0 0 0 0 0 0 0 0 0 0 0 0 0 0 0 0 0 0 0 0 0 0 0 0 0 0 0 0 0 0 0 0 0 0 0 0 0 0 0 0 
</DataArray>
<DataArray Name="Stress_22" format="ascii" type="Float64">
0 0 0 0 0 0 0 0 0 0 0 0 0 0 0 0 0 0 0 0 0 0 0 0 0 0 0 0 0 0 0 0 0 0 0 0 0 0 0 0 0 0 0 0 0 0 0 0 0 0 0 0 0 0 0 0 0 0 0 0 0 0 0 0 0 0 0 0 0 0 0 0 0 0 0 0 0 0 0 0 0 0 0 0 0 0 0 0 0 0 0 0 0 0 0 0 0 0 0 0 0 0 0 0 0 0 0 0 0 0 0 0 0 0 0 0 0 0 0 0 0 0 0 0 0 0 0 0 0 0 0 0 0 0 0 0 0 0 0 0 0 0 0 0 0 0 0 0 0 0 0 0 0 0 0 0 0 0 0 0 0 0 0 0 0 0 0 0 0 0 0 0 0 0 0 0 0 0 0 0 0 0 0 0 0 0 0 0 0 0 0 0 0 0 0 0 0 0 0 0 0 0 0 0 0 0 0 0 0 0 0 0 0 0 0 0 0 0 0 0 0 0 0 0 0 0 0 0 0 0 0 0 0 0 0 0 0 0 0 0 0 0 0 0 0 0 0 0 0 0 0 0 0 0 0 0 0 0 0 0 0 0 0 0 0 0 0 0 0 0 0 0 0 0 0 0 0 0 0 0 0 0 0 0 0 0 0 0 0 0 0 0 0 0 0 0 0 0 0 0 0 0 0 0 0 0 0 0 0 0 0 0 0 0 0 0 0 0 0 0 0 0 0 0 0 0 0 0 0 0 0 0 0 0 0 0 
</DataArray>
<DataArray Name="Stress_12" format="ascii" type="Float64">
0 0 0 0 0 0 0 0 0 0 0 0 0 0 0 0 0 0 0 0 0 0 0 0 0 0 0 0 0 0 0 0 0 0 0 0 0 0 0 0 0 0 0 0 0 0 0 0 0 0 0 0 0 0 0 0 0 0 0 0 0 0 0 0 0 0 0 0 0 0 0 0 0 0 0 0 0 0 0 0 0 0 0 0 0 0 0 0 0 0 0 0 0 0 0 0 0 0 0 0 0 0 0 0 0 0 0 0 0 0 0 0 0 0 0 0 0 0 0 0 0 0 0 0 0 0 0 0 0 0 0 0 0 0 0 0 0 0 0 0 0 0 0 0 0 0 0 0 0 0 0 0 0 0 0 0 0 0 0 0 0 0 0 0 0 0 0 0 0 0 0 0 0 0 0 0 0 0 0 0 0 0 0 0 0 0 0 0 0 0 0 0 0 0 0 0 0 0 0 0 0 0 0 0 0 0 0 0 0 0 0 0 0 0 0 0 0 0 0 0 0 0 0 0 0 0 0 0 0 0 0 0 0 0 0 0 0 0 0 0 0 0 0 0 0 0 0 0 0 0 0 0 0 0 0 0 0 0 0 0 0 0 0 0 0 0 0 0 0 0 0 0 0 0 0 0 0 0 0 0 0 0 0 0 0 0 0 0 0 0 0 0 0 0 0 0 0 0 0 0 0 0 0 0 0 0 0 0 0 0 0 0 0 0 0 0 0 0 0 0 0 0 0 0 0 0 0 0 0 0 0 0 0 0 0 0 
</DataArray>
<DataArray Name="Stress_13" format="ascii" type="Float64">
1.7857e+07 7.5e+09 7.5e+09 7.5e+09 7.5e+09 7.5e+09 7.5e+09 7.5e+09 7.5e+09 7.5e+09 7.5e+09 7.5e+09 7.5e+09 7.5e+09 7.5e+09 7.5e+09 7.5e+09 7.5e+09 7.5e+09 7.5e+09 7.5e+09 7.5e+09 7.5e+09 7.5e+09 7.5e+09 7.5e+09 7.5e+09 7.5e+09 4e+09 4e+09 4e+09 4e+09 4e+09 4e+09 4e+09 4e+09 4e+09 4e+09 7.5e+09 7.5e+09 7.5e+09 7.5e+09 7.5e+09 4e+09 7.5e+09 7.5e+09 7.5e+09 7.5e+09 7.5e+09 4e+09 7.5e+09 7.5e+09 7.5e+09 7.5e+09 7.5e+09 4e+09 7.5e+09 7.5e+09 7.5e+09 7.5e+09 7.5e+09 4e+09 7.5e+09 7.5e+09 4e+09 4e+09 4e+09 4e+09 1.7857e+07 4e+09 7.5e+09 4e+09 4e+09 4e+09 7.5e+09 7.5e+09 7.5e+09 7.5e+09 7.5e+09 4e+09 7.5e+09 7.5e+09 7.5e+09 7.5e+09 7.5e+09 1.7857e+07 7.5e+09 7.5e+09 7.5e+09 7.5e+09 7.5e+09 1.7857e+07 7.5e+09 7.5e+09 7.5e+09 7.5e+09 7.5e+09 1.7857e+07 1.7857e+07 7.5e+09 7.5e+09 1e+10 1e+10 1.7857e+07 1e+10 1e+10 1e+10 1e+10 1e+10 1.7857e+07 1e+10 1e+10 1e+10 1.7857e+07 1.7857e+07 1.7857e+07 1.7857e+07 1.7857e+07 1.7857e+07 1.7857e+07 7.5e+09 4e+09 1.7857e+07 1.7857e+07 1.7857e+07 1e+10 1.7857e+07 1e+10 4e+09 1.7857e+07 1.7857e+07 1.7857e+07 4e+09 1.7857e+07 7.5e+09 1.7857e+07 1.7857e+07 1.7857e+07 1.7857e+07 1.7857e+07 7.5e+09 4e+09 1.7857e+07 1.7857e+07 1e+10 4e+09 4e+09 7.5e+09 7.5e+09 1.7857e+07 7.5e+09 7.5e+09 7.5e+09 7.5e+09 4e+09 7.5e+09 7.5e+09 4e+09 7.5e+09 1.7857e+07 1.7857e+07 1.7857e+07 1.7857e+07 1.7857e+07 7.5e+09 7.5e+09 7.5e+09 7.5e+09 1.7857e+07 1e+10 4e+09 4e+09 1.7857e+07 7.5e+09 4e+09 7.5e+09 7.5e+09 7.5e+09 4e+09 7.5e+09 7.5e+09 4e+09 7.5e+09 7.5e+09 4e+09 4e+09 1.7857e+07 7.5e+09 4e+09 4e+09 4e+09 7.5e+09 7.5e+09 1.7857e+07 1.7857e+07 1.7857e+07 4e+09 1.7857e+07 4e+09 1.7857e+07 7.5e+09 1.7857e+07 7.5e+09 1.7857e+07 1.7857e+07 1e+10 7.5e+09 1e+10 1.7857e+07 7.5e+09 1.7857e+07 1.7857e+07 1e+10 7.5e+09 1.7857e+07 7.5e+09 1.7857e+07 1e+10 7.5e+09 1e+10 7.5e+09 7.5e+09 1e+10 1.7857e+07 7.5e+09 7.5e+09 1e+10 1.7857e+07 7.5e+09 7.5e+09 7.5e+09 7.5e+09 7.5e+09 1.7857e+07 7.5e+09 1.7857e+07 7.5e+09 7.5e+09 1e+10 7.5e+09 1.7857e+07 7.5e+09 1.7857e+07 4e+09 7.5e+09 1e+10 1.7857e+07 7.5e+09 4e+09 7.5e+09 1.7857e+07 7.5e+09 1.7857e+07 1.7857e+07 4e+09 7.5e+09 1.7857e+07 1.7857e+07 1.7857e+07 4e+09 4e+09 1.7857e+07 1.7857e+07 1.7857e+07 1e+10 7.5e+09 1.7857e+07 7.5e+09 7.5e+09 7.5e+09 1.7857e+07 4e+09 1.7857e+07 1.7857e+07 1.7857e+07 1.7857e+07 7.5e+09 7.5e+09 1.7857e+07 7.5e+09 4e+09 7.5e+09 1.7857e+07 7.5e+09 7.5e+09 7.5e+09 7.5e+09 1.7857e+07 1.7857e+07 7.5e+09 4e+09 1.7857e+07 7.5e+09 1.7857e+07 7.5e+09 7.5e+09 7.5e+09 7.5e+09 7.5e+09 7.5e+09 7.5e+09 1.7857e+07 7.5e+09 7.5e+09 7.5e+09 1.7857e+07 4e+09 7.5e+09 7.5e+09 4e+09 7.5e+09 1.7857e+07 7.5e+09 7.5e+09 7.5e+09 1.7857e+07 1.7857e+07 1.7857e+07 4e+09 4e+09 4e+09 4e+09 4e+09 1.7857e+07 4e+09 4e+09 7.5e+09 7.5e+09 7.5e+09 1.7857e+07 7.5e+09 7.5e+09 7.5e+09 7.5e+09 7.5e+09 7.5e+09 
</DataArray>
<DataArray Name="Stress_23" format="ascii" type="Float64">
-0.0215787 14.4402 13.861 12.8218 11.7603 10.3754 8.89368 7.2901 5.57618 3.79196 1.9971 0.218114 -1.5677 -3.35573 -5.09291 -6.72436 -8.20549 -9.50603 -10.5985 -11.4521 -12.0651 -12.4536 -12.5666 -12.3646 -11.6844 -11.0179 -8.76896 0.364982 0.623769 0.355429 0.126682 0.35381 -0.273091 -0.483781 -0.738356 -1.02443 -1.49573 0.135229 -1.45905 0.264997 1.05853 0.785061 0.705582 -0.0768653 0.19692 -0.140716 -0.579605 -0.838421 -0.936371 -0.271729 -0.143615 -1.35959 -2.90108 -3.97794 -4.89055 -0.487326 -6.34094 -6.65356 -6.70515 -6.56762 -6.29254 -0.73548 -5.50078 -2.47241 -2.39314 -2.34531 -1.83435 -1.05419 -0.0213055 -0.0814381 -0.616031 1.13213 1.86355 -1.42407 1.73857 10.4736 11.811 12.8117 13.7609 -1.86438 15.2703 15.885 16.4461 16.9391 17.3352 -0.0125018 17.7682 17.8576 17.8759 17.8206 17.7118 -0.00291843 17.3511 17.1004 16.8346 16.5803 16.3234 -0.00485028 -0.0219524 14.848 -0.053392 -1.58721 3.11353 -0.00599474 1.67601 0.931612 -1.81433 2.4604 -2.18957 -0.007152 -2.74504 -2.94546 1.61777 -0.00822251 0.00499629 -0.0092081 0.0403704 -0.00994231 -0.00254588 0.0249594 0.917789 -1.31649 -0.0100587 -0.0216169 -0.00954356 -2.4338 -0.00826966 0.0885211 1.67068 -0.00668325 -0.0109983 -0.00253264 0.619562 0.0195908 -0.291769 0.0628784 -0.000780506 -0.00605687 -0.0115744 -0.0254159 17.5574 -2.32343 -0.0170618 0.0463445 2.36899 -0.077743 -0.0765831 -2.13251 15.3942 -0.0257298 16.5682 17.0597 -3.15493 17.1783 -2.57272 -2.6504 17.4529 0.561341 -3.52635 -0.0193771 -0.021218 -0.0152405 0.0475847 -0.0080962 15.8324 16.5604 17.978 14.6714 0.0512739 0.57849 -2.27345 1.1782 0.00389348 -4.66681 -1.86164 18.1021 9.94396 17.6494 -0.710779 7.36726 -9.32717 -0.0765565 0.48594 17.7199 0.553023 1.7469 -0.000986009 -5.69967 -0.712497 1.18194 1.70493 0.397775 14.8124 0.0155366 -0.012667 0.0552898 -1.30703 0.0284985 2.06522 -0.00552194 -6.41797 -0.020186 14.9053 -0.0131817 0.0329279 -1.36487 17.9633 3.36319 -0.0242126 13.4786 0.0435086 0.0569347 1.49764 2.75845 -0.00961547 -6.77564 0.0489239 -2.02296 -12.3678 1.19259 16.0642 12.106 -1.78968 0.0113471 -5.81802 17.9192 -2.24709 -0.0161546 17.4413 10.5312 -11.6525 -6.84181 0.708464 0.0583421 -11.0272 0.059533 -8.5932 17.8075 0.467103 -0.647801 0.0533994 16.7105 0.0613451 0.129873 -12.3301 -2.646 0.0620028 11.9633 0.448916 -6.71281 0.0625124 -5.57456 -0.0184953 0.0546666 -0.707553 15.5081 0.0415129 0.0630959 0.0358516 -1.86204 0.560864 0.00354719 0.0303694 0.0605279 -3.16383 17.8775 0.0629328 12.9356 16.0078 -6.43346 0.0623654 -1.0362 0.0607957 0.0142648 0.0588174 0.00900962 14.7412 16.9361 -0.0143537 -0.647832 -2.44605 -10.439 -0.0215868 14.7152 13.8899 0.0042799 -6.00228 0.0631475 -0.0069652 14.0509 -1.57169 0.0368836 13.6941 0.0152176 9.12326 -5.72999 5.71777 3.93965 2.16397 14.574 -1.37584 -0.0222373 -4.88825 -6.52216 -8.0121 0.00745704 -1.30885 -11.3156 -11.9533 2.20351 -12.506 -0.0247684 14.6993 14.427 13.8678 0.0673435 0.0631865 -0.00899942 0.114327 -0.0686648 -0.272782 -0.485422 -0.742898 0.00291626 -1.50214 -1.44146 -1.33767 17.6063 1.04461 -0.00934915 0.647063 0.427733 0.152456 -0.150589 -0.518012 -0.636466 
</DataArray>
<DataArray Name="Stress_33" format="ascii" type="Float64">
0 0 0 0 0 0 0 0 0 0 0 0 0 0 0 0 0 0 0 0 0 0 0 0 0 0 0 0 0 0 0 0 0 0 0 0 0 0 0 0 0 0 0 0 0 0 0 0 0 0 0 0 0 0 0 0 0 0 0 0 0 0 0 0 0 0 0 0 0 0 0 0 0 0 0 0 0 0 0 0 0 0 0 0 0 0 0 0 0 0 0 0 0 0 0 0 0 0 0 0 0 0 0 0 0 0 0 0 0 0 0 0 0 0 0 0 0 0 0 0 0 0 0 0 0 0 0 0 0 0 0 0 0 0 0 0 0 0 0 0 0 0 0 0 0 0 0 0 0 0 0 0 0 0 0 0 0 0 0 0 0 0 0 0 0 0 0 0 0 0 0 0 0 0 0 0 0 0 0 0 0 0 0 0 0 0 0 0 0 0 0 0 0 0 0 0 0 0 0 0 0 0 0 0 0 0 0 0 0 0 0 0 0 0 0 0 0 0 0 0 0 0 0 0 0 0 0 0 0 0 0 0 0 0 0 0 0 0 0 0 0 0 0 0 0 0 0 0 0 0 0 0 0 0 0 0 0 0 0 0 0 0 0 0 0 0 0 0 0 0 0 0 0 0 0 0 0 0 0 0 0 0 0 0 0 0 0 0 0 0 0 0 0 0 0 0 0 0 0 0 0 0 0 0 0 0 0 0 0 0 0 0 0 0 0 0 0 0 0 0 0 0 0 0 0 0 0 0 0 0 0 0 0 0 0 0 
</DataArray>
</CellData>
<Points>
<DataArray NumberOfComponents="3" format="ascii" type="Float64">