<?xml version="1.0"?>
<VTKFile byte_order="LittleEndian" type="UnstructuredGrid" version="0.1">
<UnstructuredGrid>
<Piece NumberOfCells="336" NumberOfPoints="440">
<PointData>
<DataArray Name="Warping_X" format="ascii" type="Float64">
8.56741e-10 7.45816e-10 6.91918e-10 6.36965e-10 5.86511e-10 5.37759e-10 4.9063e-10 4.45097e-10 4.01132e-10 3.58707e-10 3.17779e-10 2.78284e-10 2.40161e-10 2.0337e-10 1.6787e-10 1.33611e-10 1.00544e-10 6.86243e-11 3.78151e-11 8.09087e-12 -2.05662e-11 -4.81552e-11 -7.46495e-11 -1.00004e-10 -1.24147e-10 -1.47028e-10 -1.68371e-10 -1.94219e-10 -2.01491e-10 -2.11342e-10 -2.20292e-10 -2.28329e-10 -2.3542e-10 -2.41547e-10 -2.46695e-10 -2.50847e-10 -2.53986e-10 -2.55563e-10 -2.6012e-10 -2.61004e-10 -2.60022e-10 -2.57245e-10 -2.52589e-10 -2.46031e-10 -2.37552e-10 -2.27124e-10 -2.14611e-10 -2.0763e-10 -1.99885e-10 -1.96268e-10 -1.90259e-10 -1.86617e-10 -1.86178e-10 -1.86807e-10 -1.88523e-10 -1.93304e-10 -1.9853e-10 -2.0367e-10 -2.08383e-10 -2.12433e-10 -2.15644e-10 -2.17925e-10 -2.19048e-10 -2.1841e-10 -2.17804e-10 -2.16326e-10 -2.14106e-10 -2.11114e-10 -2.07328e-10 -2.02727e-10 -1.97295e-10 -1.91026e-10 -1.83897e-10 -1.7857e-10 -1.5855e-10 -1.41304e-10 -1.22277e-10 -1.01668e-10 -7.94588e-11 -5.5667e-11 -3.03049e-11 -3.38573e-12 2.50876e-11 5.51152e-11 8.66993e-11 1.19833e-10 1.545e-10 1.90689e-10 2.28398e-10 2.67617e-10 3.08335e-10 3.50553e-10 3.94269e-10 4.39472e-10 4.86147e-10 5.34299e-10 5.83935e-10 6.35163e-10 6.88658e-10 7.43714e-10 -2.4606e-10 -2.35855e-10 -2.27843e-10 -2.22102e-10 -2.18935e-10 -1.76563e-10 -1.75035e-10 -1.7618e-10 -1.80294e-10 -1.87439e-10 8.86139e-10 7.45904e-10 6.92058e-10 6.40153e-10 5.89925e-10 5.41284e-10 4.94223e-10 4.4872e-10 4.04748e-10 3.62269e-10 3.21237e-10 2.81597e-10 2.43303e-10 2.0631e-10 1.70568e-10 1.36026e-10 1.02633e-10 7.03465e-11 3.91319e-11 8.96601e-12 -2.01605e-11 -4.82436e-11 -7.52633e-11 -1.01183e-10 -1.25937e-10 -1.49451e-10 -1.71581e-10 -1.91183e-10 -2.02106e-10 -2.12036e-10 -2.21076e-10 -2.29189e-10 -2.36346e-10 -2.42528e-10 -2.47719e-10 -2.51904e-10 -2.55065e-10 -2.57333e-10 -2.62354e-10 -2.63572e-10 -2.62839e-10 -2.6018e-10 -2.55547e-10 -2.48913e-10 -2.40243e-10 -2.29452e-10 -2.16328e-10 -2.08727e-10 -2.00124e-10 -1.95126e-10 -1.86618e-10 -1.82221e-10 -1.81856e-10 -1.82933e-10 -1.85082e-10 -1.90552e-10 -1.96337e-10 -2.01936e-10 -2.07037e-10 -2.11414e-10 -2.1489e-10 -2.17348e-10 -2.18622e-10 -2.18657e-10 -2.17843e-10 -2.16411e-10 -2.14224e-10 -2.11255e-10 -2.07482e-10 -2.02886e-10 -1.97449e-10 -1.91165e-10 -1.84035e-10 -1.76029e-10 -1.60637e-10 -1.43262e-10 -1.24237e-10 -1.03621e-10 -8.14112e-11 -5.76157e-11 -3.22416e-11 -5.29472e-12 2.32233e-11 5.33083e-11 8.49538e-11 1.18147e-10 1.52875e-10 1.89131e-10 2.26906e-10 2.66192e-10 3.06981e-10 3.49269e-10 3.93051e-10 4.38326e-10 4.85102e-10 5.33423e-10 5.8339e-10 6.3511e-10 6.88672e-10 7.43734e-10 -2.4734e-10 -2.3704e-10 -2.28777e-10 -2.22814e-10 -2.19234e-10 -1.71729e-10 -1.69911e-10 -1.7093e-10 -1.74698e-10 -1.81585e-10 9.44951e-10 7.46078e-10 6.92351e-10 6.40448e-10 5.90235e-10 5.41633e-10 4.94605e-10 4.49128e-10 4.05176e-10 3.62712e-10 3.21686e-10 2.82046e-10 2.43747e-10 2.06744e-10 1.70987e-10 1.36422e-10 1.03002e-10 7.06816e-11 3.94278e-11 9.21794e-12 -1.99565e-11 -4.80908e-11 -7.51653e-11 -1.01143e-10 -1.25955e-10 -1.49521e-10 -1.71702e-10 -1.9238e-10 -2.03318e-10 -2.13475e-10 -2.22684e-10 -2.3095e-10 -2.3824e-10 -2.44533e-10 -2.49812e-10 -2.54062e-10 -2.57279e-10 -2.59436e-10 -2.6266e-10 -2.63882e-10 -2.6315e-10 -2.60488e-10 -2.55842e-10 -2.49186e-10 -2.40481e-10 -2.2964e-10 -2.16443e-10 -2.08777e-10 -2.00089e-10 -1.94965e-10 -1.86208e-10 -1.81724e-10 -1.81356e-10 -1.82465e-10 -1.84662e-10 -1.90197e-10 -1.96046e-10 -2.01706e-10 -2.06862e-10 -2.11287e-10 -2.14806e-10 -2.17303e-10 -2.18612e-10 -2.18565e-10 -2.17969e-10 -2.1662e-10 -2.14502e-10 -2.11581e-10 -2.07835e-10 -2.03246e-10 -1.978e-10 -1.91496e-10 -1.84299e-10 -1.7636e-10 -1.60717e-10 -1.43344e-10 -1.24322e-10 -1.03701e-10 -8.14824e-11 -5.76767e-11 -3.22913e-11 -5.33138e-12 2.32012e-11 5.33017e-11 8.49628e-11 1.18171e-10 1.52913e-10 1.89183e-10 2.26972e-10 2.6627e-10 3.07071e-10 3.4937e-10 3.93162e-10 4.38443e-10 4.85224e-10 5.33542e-10 5.8349e-10 6.35197e-10 6.88728e-10 7.43776e-10 -2.47476e-10 -2.37153e-10 -2.28865e-10 -2.22878e-10 -2.19274e-10 -1.71216e-10 -1.69375e-10 -1.7037e-10 -1.74112e-10 -1.80976e-10 7.97968e-10 7.45619e-10 6.91685e-10 6.36703e-10 5.86182e-10 5.37395e-10 4.90237e-10 4.44678e-10 4.00692e-10 3.58254e-10 3.1732e-10 2.77825e-10 2.39708e-10 2.02928e-10 1.67443e-10 1.33206e-10 1.00168e-10 6.82814e-11 3.75112e-11 7.83076e-12 -2.07786e-11 -4.83167e-11 -7.47568e-11 -1.00055e-10 -1.2414e-10 -1.46964e-10 -1.68282e-10 -1.93435e-10 -2.00315e-10 -2.09987e-10 -2.18767e-10 -2.26651e-10 -2.33611e-10 -2.39629e-10 -2.4469e-10 -2.48775e-10 -2.51888e-10 -2.53422e-10 -2.59827e-10 -2.60707e-10 -2.59722e-10 -2.56949e-10 -2.52305e-10 -2.4577e-10 -2.37325e-10 -2.26948e-10 -2.14507e-10 -2.07588e-10 -1.99924e-10 -1.96426e-10 -1.90654e-10 -1.87099e-10 -1.8667e-10 -1.8727e-10 -1.8894e-10 -1.93658e-10 -1.98821e-10 -2.03903e-10 -2.08562e-10 -2.12564e-10 -2.15734e-10 -2.17978e-10 -2.19068e-10 -2.18476e-10 -2.17771e-10 -2.16195e-10 -2.13909e-10 -2.10872e-10 -2.0706e-10 -2.02454e-10 -1.97033e-10 -1.90786e-10 -1.83689e-10 -1.78633e-10 -1.58502e-10 -1.41231e-10 -1.22208e-10 -1.01604e-10 -7.94031e-11 -5.56215e-11 -3.02708e-11 -3.36466e-12 2.50941e-11 5.51062e-11 8.66748e-11 1.19794e-10 1.54446e-10 1.90621e-10 2.28317e-10 2.67523e-10 3.08229e-10 3.50436e-10 3.94143e-10 4.39339e-10 4.8601e-10 5.34161e-10 5.83808e-10 6.35115e-10 6.88659e-10 7.43666e-10 -2.45905e-10 -2.35725e-10 -2.27738e-10 -2.22021e-10 -2.18877e-10 -1.77058e-10 -1.75554e-10 -1.76725e-10 -1.80863e-10 -1.88032e-10 
</DataArray>
<DataArray Name="Warping_Y" format="ascii" type="Float64">
-7.18928e-11 -6.12655e-11 -5.43463e-11 -5.90726e-11 -5.04885e-11 -4.10457e-11 -3.11732e-11 -2.08945e-11 -1.02981e-11 4.71807e-13 1.12589e-11 2.19072e-11 3.23035e-11 4.23388e-11 5.18856e-11 6.08076e-11 6.89644e-11 7.62234e-11 8.24608e-11 8.75611e-11 9.14283e-11 9.39936e-11 9.51944e-11 9.49829e-11 9.33495e-11 9.03227e-11 8.62688e-11 8.1775e-11 7.89806e-11 7.41844e-11 6.87289e-11 6.26777e-11 5.61033e-11 4.90798e-11 4.16846e-11 3.39931e-11 2.6091e-11 2.06793e-11 1.03462e-11 1.65668e-12 -7.27023e-12 -1.63882e-11 -2.55299e-11 -3.44795e-11 -4.29684e-11 -5.06662e-11 -5.71742e-11 -5.9687e-11 -6.14961e-11 -6.19398e-11 -6.05875e-11 -5.48201e-11 -5.103e-11 -4.37152e-11 -3.74892e-11 -2.68102e-11 -1.81144e-11 -1.11486e-11 -5.71862e-12 -1.63384e-12 1.27338e-12 3.16606e-12 4.13981e-12 4.57218e-12 4.59215e-12 4.17811e-12 3.47162e-12 2.55812e-12 1.51058e-12 4.02896e-13 -6.9898e-13 -1.74071e-12 -2.67563e-12 -3.18659e-12 -3.96159e-12 -6.90937e-12 -1.0239e-11 -1.36458e-11 -1.70581e-11 -2.04019e-11 -2.36306e-11 -2.67014e-11 -2.95676e-11 -3.21952e-11 -3.45629e-11 -3.66744e-11 -3.85337e-11 -4.01316e-11 -4.14686e-11 -4.25559e-11 -4.33973e-11 -4.40021e-11 -4.44019e-11 -4.46425e-11 -4.47981e-11 -4.49581e-11 -4.52939e-11 -4.68828e-11 -6.27762e-11 -6.61512e-11 1.71201e-11 1.31946e-11 9.93545e-12 7.34248e-12 5.4221e-12 7.43465e-12 2.16306e-11 3.65021e-11 5.20577e-11 6.83098e-11 -7.40453e-11 -6.06417e-11 -5.37578e-11 -4.5006e-11 -3.65233e-11 -2.7698e-11 -1.82681e-11 -8.40349e-12 1.78059e-12 1.21593e-11 2.25755e-11 3.28697e-11 4.29266e-11 5.26376e-11 6.18748e-11 7.05005e-11 7.8372e-11 8.53533e-11 9.1317e-11 9.61435e-11 9.97325e-11 1.02012e-10 1.02916e-10 1.02383e-10 1.00395e-10 9.70934e-11 9.25939e-11 8.45285e-11 8.0354e-11 7.54548e-11 6.98758e-11 6.37008e-11 5.69974e-11 4.9842e-11 4.23117e-11 3.44871e-11 2.64367e-11 1.83353e-11 1.07916e-11 1.56677e-12 -7.83325e-12 -1.74326e-11 -2.70672e-11 -3.65157e-11 -4.55091e-11 -5.37328e-11 -6.07712e-11 -6.35629e-11 -6.55438e-11 -6.59782e-11 -6.38397e-11 -5.59964e-11 -5.12293e-11 -4.32698e-11 -3.66217e-11 -2.56955e-11 -1.69358e-11 -1.0025e-11 -4.72191e-12 -8.14384e-13 1.8852e-12 3.54242e-12 4.15073e-12 4.5222e-12 4.45231e-12 3.93211e-12 3.12463e-12 2.10404e-12 9.47594e-13 -2.70919e-13 -1.4838e-12 -2.63995e-12 -3.67779e-12 -4.53842e-12 -8.88131e-12 -1.2279e-11 -1.59889e-11 -1.98803e-11 -2.37636e-11 -2.75718e-11 -3.12651e-11 -3.47997e-11 -3.81282e-11 -4.12153e-11 -4.40374e-11 -4.65968e-11 -4.88987e-11 -5.09349e-11 -5.27048e-11 -5.422e-11 -5.5485e-11 -5.65078e-11 -5.732e-11 -5.79704e-11 -5.85113e-11 -5.90434e-11 -5.9952e-11 -6.1504e-11 -6.33837e-11 -6.67856e-11 1.4862e-11 1.13476e-11 8.53744e-12 6.40836e-12 4.95756e-12 7.01402e-12 2.1654e-11 3.70353e-11 5.31112e-11 6.98546e-11 -7.83489e-11 -5.9386e-11 -5.25734e-11 -4.40462e-11 -3.55981e-11 -2.68064e-11 -1.74104e-11 -7.57884e-12 2.57274e-12 1.29201e-11 2.33068e-11 3.35729e-11 4.36033e-11 5.32893e-11 6.25034e-11 7.11081e-11 7.89605e-11 8.59245e-11 9.18724e-11 9.6684e-11 1.00259e-10 1.02524e-10 1.03413e-10 1.02864e-10 1.00858e-10 9.75292e-11 9.30225e-11 8.75939e-11 8.31175e-11 7.80135e-11 7.21868e-11 6.57617e-11 5.87984e-11 5.13769e-11 4.35761e-11 3.54765e-11 2.71486e-11 1.87555e-11 1.07933e-11 1.54383e-12 -7.89818e-12 -1.75369e-11 -2.72122e-11 -3.67006e-11 -4.57337e-11 -5.39964e-11 -6.10756e-11 -6.38845e-11 -6.58873e-11 -6.63371e-11 -6.4173e-11 -5.61839e-11 -5.13293e-11 -4.33134e-11 -3.66091e-11 -2.5653e-11 -1.68732e-11 -9.95467e-12 -4.65218e-12 -7.51822e-13 1.93674e-12 3.57506e-12 4.18214e-12 4.45237e-12 4.18655e-12 3.46592e-12 2.44956e-12 1.21363e-12 -1.63073e-13 -1.60542e-12 -3.04185e-12 -4.42985e-12 -5.66421e-12 -6.85948e-12 -9.21088e-12 -1.26266e-11 -1.63716e-11 -2.02931e-11 -2.42069e-11 -2.80447e-11 -3.17675e-11 -3.53312e-11 -3.86886e-11 -4.18043e-11 -4.46546e-11 -4.7242e-11 -4.95717e-11 -5.16355e-11 -5.34328e-11 -5.49752e-11 -5.62674e-11 -5.73174e-11 -5.81568e-11 -5.88346e-11 -5.9403e-11 -5.99642e-11 -6.09042e-11 -6.24843e-11 -6.45963e-11 -6.80628e-11 1.46315e-11 1.11567e-11 8.39142e-12 6.30915e-12 4.91347e-12 6.93787e-12 2.16486e-11 3.70832e-11 5.32135e-11 7.00418e-11 -6.75861e-11 -6.2489e-11 -5.55358e-11 -6.00284e-11 -5.14116e-11 -4.19336e-11 -3.2027e-11 -2.17144e-11 -1.10848e-11 -2.82964e-13 1.05343e-11 2.12111e-11 3.16345e-11 4.16952e-11 5.12655e-11 6.02088e-11 6.8385e-11 7.56615e-11 8.1915e-11 8.70302e-11 9.09118e-11 9.34914e-11 9.47068e-11 9.45116e-11 9.28946e-11 8.98947e-11 8.58404e-11 7.88391e-11 7.62439e-11 7.16667e-11 6.64505e-11 6.06466e-11 5.43278e-11 4.75663e-11 4.04381e-11 3.3016e-11 2.53928e-11 2.01947e-11 1.03514e-11 1.67117e-12 -7.20918e-12 -1.62887e-11 -2.53899e-11 -3.43e-11 -4.27497e-11 -5.04097e-11 -5.68781e-11 -5.93738e-11 -6.11601e-11 -6.15854e-11 -6.02605e-11 -5.46338e-11 -5.09222e-11 -4.36625e-11 -3.74914e-11 -2.68415e-11 -1.81661e-11 -1.12083e-11 -5.77812e-12 -1.6863e-12 1.23074e-12 3.14627e-12 4.10741e-12 4.74408e-12 4.90397e-12 4.68997e-12 4.18617e-12 3.48369e-12 2.652e-12 1.76359e-12 8.82937e-13 6.47305e-14 -6.57256e-13 -9.52716e-13 -3.62186e-12 -6.56373e-12 -9.85673e-12 -1.32347e-11 -1.66167e-11 -1.9931e-11 -2.31304e-11 -2.61721e-11 -2.90095e-11 -3.16085e-11 -3.39479e-11 -3.60314e-11 -3.78627e-11 -3.9433e-11 -4.07423e-11 -4.18021e-11 -4.26161e-11 -4.31934e-11 -4.35657e-11 -4.37785e-11 -4.39056e-11 -4.40361e-11 -4.434e-11 -4.58815e-11 -6.154e-11 -6.49083e-11 1.73499e-11 1.33809e-11 1.00767e-11 7.43341e-12 5.46217e-12 7.48154e-12 2.16374e-11 3.64495e-11 5.19406e-11 6.81467e-11 
</DataArray>
<DataArray Name="Warping_Z" format="ascii" type="Float64">
0 0 0 0 0 0 0 0 0 0 0 0 0 0 0 0 0 0 0 0 0 0 0 0 0 0 0 0 0 0 0 0 0 0 0 0 0 0 0 0 0 0 0 0 0 0 0 0 0 0 0 0 0 0 0 0 0 0 0 0 0 0 0 0 0 0 0 0 0 0 0 0 0 0 0 0 0 0 0 0 0 0 0 0 0 0 0 0 0 0 0 0 0 0 0 0 0 0 0 0 0 0 0 0 0 0 0 0 0 0 0 0 0 0 0 0 0 0 0 0 0 0 0 0 0 0 0 0 0 0 0 0 0 0 0 0 0 0 0 0 0 0 0 0 0 0 0 0 0 0 0 0 0 0 0 0 0 0 0 0 0 0 0 0 0 0 0 0 0 0 0 0 0 0 0 0 0 0 0 0 0 0 0 0 0 0 0 0 0 0 0 0 0 0 0 0 0 0 0 0 0 0 0 0 0 0 0 0 0 0 0 0 0 0 0 0 0 0 0 0 0 0 0 0 0 0 0 0 0 0 0 0 0 0 0 0 0 0 0 0 0 0 0 0 0 0 0 0 0 0 0 0 0 0 0 0 0 0 0 0 0 0 0 0 0 0 0 0 0 0 0 0 0 0 0 0 0 0 0 0 0 0 0 0 0 0 0 0 0 0 0 0 0 0 0 0 0 0 0 0 0 0 0 0 0 0 0 0 0 0 0 0 0 0 0 0 0 0 0 0 0 0 0 0 0 0 0 0 0 0 0 0 0 0 0 0 0 0 0 0 0 0 0 0 0 0 0 0 0 0 0 0 0 0 0 0 0 0 0 0 0 0 0 0 0 0 0 0 0 0 0 0 0 0 0 0 0 0 0 0 0 0 0 0 0 0 0 0 0 0 0 0 0 0 0 0 0 0 0 0 0 0 0 0 0 0 0 0 0 0 0 0 0 0 0 0 0 0 0 0 0 0 0 0 0 0 0 0 0 0 0 0 0 0 0 0 0 0 0 0 
</DataArray>
</PointData>
<CellData>
<DataArray Name="MaterialId" format="ascii" type="Float64">
4 3 3 3 3 3 3 3 3 3 3 3 3 3 3 3 3 3 3 3 3 3 3 3 3 3 3 3 1 1 1 1 1 1 1 1 1 1 3 3 3 3 3 1 3 3 3 3 3 1 3 3 3 3 3 1 3 3 3 3 3 1 3 3 1 1 1 1 4 1 3 1 1 1 3 3 3 3 3 1 3 3 3 3 3 4 3 3 3 3 3 4 3 3 3 3 3 4 4 3 3 2 2 4 2 2 2 2 2 4 2 2 2 4 4 4 4 4 4 4 3 1 4 4 4 2 4 2 1 4 4 4 1 4 3 4 4 4 4 4 3 1 4 4 2 1 1 3 3 4 3 3 3 3 1 3 3 1 3 4 4 4 4 4 3 3 3 3 4 2 1 1 4 3 1 3 3 3 1 3 3 1 3 3 1 1 4 3 1 1 1 3 3 4 4 4 1 4 1 4 3 4 3 4 4 2 3 2 4 3 4 4 2 3 4 3 4 2 3 2 3 3 2 4 3 3 2 4 3 3 3 3 3 4 3 4 3 3 2 3 4 3 4 1 3 2 4 3 1 3 4 3 4 4 1 3 4 4 4 1 1 4 4 4 2 3 4 3 3 3 4 1 4 4 4 4 3 3 4 3 1 3 4 3 3 3 3 4 4 3 1 4 3 4 3 3 3 3 3 3 3 4 3 3 3 4 1 3 3 1 3 4 3 3 3 4 4 4 1 1 1 1 1 4 1 1 3 3 3 4 3 3 3 3 3 3 
</DataArray>
<DataArray Name="FiberAngle" format="ascii" type="Float64">
0 0 0 0 0 0 0 0 0 0 0 0 0 0 0 0 0 0 0 0 0 0 0 0 0 0 0 0 0 0 0 0 0 0 0 0 0 0 0 0 0 0 0 0 0 0 0 0 0 0 0 0 0 0 0 0 0 0 0 0 0 0 0 0 0 0 0 0 0 0 0 0 0 0 0 0 0 0 0 0 0 0 0 0 0 0 0 0 0 0 0 0 0 0 0 0 0 0 0 0 0 0 0 0 0 0 0 0 0 0 0 0 0 0 0 0 0 0 0 0 0 0 0 0 0 0 0 0 0 0 0 0 0 0 0 0 0 0 0 0 0 0 0 0 0 0 0 0 0 0 0 0 0 0 0 0 0 0 0 0 0 0 0 0 0 0 0 0 0 0 0 0 0 0 0 0 0 0 0 0 0 0 0 0 0 0 0 0 0 0 0 0 0 0 0 0 0 0 0 0 0 0 0 0 0 0 0 0 0 0 0 0 0 0 0 0 0 0 0 0 0 0 0 0 0 0 0 0 0 0 0 0 0 0 0 0 0 0 0 0 0 0 0 0 0 0 0 0 0 0 0 0 0 0 0 0 0 0 0 0 0 0 0 0 0 0 0 0 0 0 0 0 0 0 0 0 0 0 0 0 0 0 0 0 0 0 0 0 0 0 0 0 0 0 0 0 0 0 0 0 0 0 0 0 0 0 0 0 0 0 0 0 0 0 0 0 0 0 0 0 0 0 0 0 0 0 0 0 0 0 0 0 0 0 0 0 
</DataArray>
<DataArray Name="Strain_11" format="ascii" type="Float64">
-3.7777e-10 -9.33307e-10 -8.90758e-10 -8.64258e-10 -8.39618e-10 -8.16164e-10 -7.93003e-10 -7.69962e-10 -7.47069e-10 -7.24359e-10 -7.01817e-10 -6.79435e-10 -6.57209e-10 -6.35118e-10 -6.13143e-10 -5.91266e-10 -5.69467e-10 -5.47725e-10 -5.26016e-10 -5.04317e-10 -4.82604e-10 -4.60861e-10 -4.3906e-10 -4.17214e-10 -3.95314e-10 -3.73652e-10 -3.50843e-10 -3.27642e-10 -1.71248e-10 -1.58906e-10 -1.45661e-10 -1.57324e-10 -1.19372e-10 -1.06037e-10 -9.25869e-11 -7.90125e-11 -6.54259e-11 -1.44488e-10 -7.16041e-11 -4.64476e-11 -1.96662e-11 6.16241e-12 3.22303e-11 -1.31517e-10 8.50108e-11 1.11979e-10 1.39584e-10 1.60837e-10 1.75698e-10 -1.18389e-10 1.94878e-10 1.99854e-10 1.99382e-10 1.94223e-10 1.85823e-10 -1.05165e-10 1.52212e-10 1.32008e-10 1.11298e-10 9.0164e-11 6.85795e-11 -9.18321e-11 2.34676e-11 2.66116e-13 -1.16871e-11 -2.41546e-11 -3.69991e-11 -7.83743e-11 -3.5809e-10 -7.65642e-11 1.70903e-10 -1.03519e-10 -1.17402e-10 -6.47643e-11 -2.54865e-10 -2.79494e-10 -3.04744e-10 -3.2921e-10 -3.54081e-10 -5.34687e-11 -4.04191e-10 -4.29364e-10 -4.54604e-10 -4.79909e-10 -5.05272e-10 -7.11015e-11 -5.56099e-10 -5.81537e-10 -6.06986e-10 -6.32433e-10 -6.57877e-10 -3.7918e-11 -7.08756e-10 -7.34197e-10 -7.59692e-10 -7.85283e-10 -8.11265e-10 -1.34524e-11 -3.35076e-10 -8.90371e-10 1.80912e-10 -7.47836e-11 -6.21686e-11 9.80281e-12 -3.80536e-11 -2.61094e-11 -1.55166e-11 -5.02924e-11 -2.62214e-10 3.36568e-11 -2.86628e-10 -2.98717e-10 -3.11216e-10 5.72602e-11 -2.36063e-10 8.04839e-11 -3.48158e-10 1.03343e-10 -3.09811e-10 -6.84419e-10 1.88622e-10 -5.16182e-11 1.25889e-10 -3.97312e-10 1.42572e-10 -2.74231e-10 1.54069e-10 -2.51314e-10 -1.30212e-10 1.64696e-10 -2.59337e-10 1.72186e-10 -1.71495e-10 -6.59304e-10 1.92552e-10 -6.86048e-10 1.74989e-10 1.71506e-10 1.63769e-10 9.97155e-11 -6.83319e-10 -2.61548e-11 1.57069e-10 -3.95614e-10 -5.89052e-11 -1.32603e-10 -7.76613e-11 1.90192e-10 -4.0655e-10 1.15711e-10 -4.56526e-10 -4.81588e-10 -6.28653e-10 -7.33372e-10 -1.39702e-11 -7.48455e-12 -5.06697e-10 -9.08844e-11 1.85021e-10 4.5588e-11 -4.16647e-10 2.45242e-11 -7.86529e-10 -3.6548e-12 -8.90768e-10 -7.83179e-10 -6.07457e-10 -8.89162e-10 -4.42974e-10 -3.45808e-11 -2.50756e-11 -1.04174e-10 -5.86045e-10 1.77333e-10 -3.78958e-11 -8.64556e-10 -8.09725e-10 -6.831e-10 -6.39134e-11 -7.63371e-10 -5.41438e-10 -7.71145e-11 5.84698e-11 -5.31848e-10 -9.04565e-11 -1.17846e-10 -5.62684e-10 1.64398e-10 -6.45725e-11 -1.03867e-10 -1.17402e-10 -6.72945e-10 -8.29687e-10 -2.45965e-10 -2.71164e-10 -4.90391e-10 -5.08442e-11 -2.74069e-10 -1.28377e-10 -5.40019e-10 1.46119e-10 -4.36173e-10 -9.32745e-10 -4.96764e-10 -3.00388e-10 -8.14343e-11 -5.82238e-10 -7.12338e-11 8.25488e-11 -8.87549e-10 -3.71886e-10 -5.14307e-10 -4.6631e-11 -2.50368e-10 -5.18054e-10 1.26786e-10 -4.19312e-10 -2.45864e-11 -4.54881e-10 -2.41913e-10 -8.38922e-10 -8.57413e-10 -2.53494e-10 -5.29594e-11 4.6741e-11 -6.32681e-10 -2.65926e-10 -4.76108e-10 -7.0827e-10 -2.80686e-10 -3.89286e-10 1.06758e-10 9.79915e-12 -5.38399e-10 -3.67319e-10 -5.62602e-10 -3.42996e-10 -6.57899e-10 -2.99435e-10 -3.16179e-10 -4.66648e-10 -8.07184e-10 -6.11471e-10 -1.6612e-10 -4.11372e-10 -2.78326e-10 -6.3614e-10 -3.07356e-10 -1.56286e-10 8.62701e-11 -6.60967e-10 2.17019e-11 -4.55967e-10 -8.11455e-10 -6.32489e-11 -8.6692e-10 -7.61129e-10 -7.11445e-10 -7.35516e-10 -3.8774e-11 -9.0014e-11 -2.52773e-11 -7.09876e-10 -5.86946e-10 -2.9054e-10 -5.57032e-10 -7.63695e-10 -3.31884e-10 -4.31511e-10 6.5328e-11 -7.91757e-10 -7.77181e-11 -8.23027e-10 -6.34488e-10 -8.59924e-10 -6.10018e-10 -9.33281e-10 -7.58366e-10 -2.86267e-10 1.86579e-10 -1.55221e-11 -5.19801e-10 1.46504e-10 -9.32956e-10 -3.56808e-10 -4.00608e-11 4.46652e-11 -7.37244e-10 -5.96164e-11 -9.33353e-10 -5.23997e-11 -3.24225e-10 -8.33727e-10 -6.16283e-11 -7.86523e-10 1.71785e-10 -7.40468e-10 -7.17787e-10 -6.9529e-10 -3.79083e-10 -6.50733e-10 6.42372e-11 -6.06701e-10 -5.84864e-10 -5.63118e-10 -4.11446e-11 -5.0061e-11 -4.9818e-10 -4.76546e-10 -1.31562e-10 -4.33158e-10 1.30874e-10 -3.81636e-10 -9.33264e-10 -8.91062e-10 -8.63977e-10 -8.36041e-10 -1.4494e-11 -1.4327e-10 -1.30424e-10 -1.17411e-10 -1.04297e-10 -9.10772e-11 -1.90194e-10 -6.43485e-11 -5.2838e-11 -7.27523e-11 -5.30676e-10 -1.43238e-11 -2.48946e-10 3.48338e-11 6.00868e-11 8.56664e-11 1.11576e-10 1.37654e-10 1.57576e-10 
</DataArray>
<DataArray Name="Strain_22" format="ascii" type="Float64">
-2.75813e-10 -5.22058e-10 -5.03222e-10 -4.8629e-10 -4.74295e-10 -4.60854e-10 -4.47763e-10 -4.34681e-10 -4.21754e-10 -4.0892e-10 -3.96179e-10 -3.83521e-10 -3.70939e-10 -3.58433e-10 -3.46003e-10 -3.33642e-10 -3.21339e-10 -3.09082e-10 -2.96855e-10 -2.84643e-10 -2.7243e-10 -2.60195e-10 -2.4794e-10 -2.35575e-10 -2.23282e-10 -2.09945e-10 -2.00525e-10 -1.80688e-10 -1.72615e-10 -1.57937e-10 -1.45578e-10 -1.57056e-10 -1.19247e-10 -1.05961e-10 -9.25783e-11 -7.90713e-11 -6.54887e-11 -1.44658e-10 -4.00292e-11 -2.11014e-11 -9.63786e-12 4.92219e-12 1.90689e-11 -1.31486e-10 4.82106e-11 6.29689e-11 7.86713e-11 9.0401e-11 9.85018e-11 -1.18418e-10 1.13432e-10 1.168e-10 1.13828e-10 1.09666e-10 1.04588e-10 -1.05195e-10 8.56295e-11 7.45808e-11 6.31343e-11 5.14184e-11 3.96737e-11 -9.18228e-11 1.77566e-11 -1.43392e-12 -1.07254e-11 -2.38865e-11 -3.67618e-11 -7.85207e-11 -2.61131e-10 -7.61689e-11 9.62906e-11 -1.03154e-10 -1.16098e-10 -6.45389e-11 -1.41472e-10 -1.60555e-10 -1.71959e-10 -1.86641e-10 -2.006e-10 -5.14339e-11 -2.28822e-10 -2.42963e-10 -2.57127e-10 -2.71317e-10 -2.8553e-10 -4.09624e-11 -3.14015e-10 -3.28276e-10 -3.42545e-10 -3.56817e-10 -3.71088e-10 -3.44361e-11 -3.99609e-10 -4.13842e-10 -4.28023e-10 -4.42216e-10 -4.5615e-10 -1.44781e-11 -2.46268e-10 -4.99574e-10 1.0128e-10 -4.2274e-11 -3.57331e-11 3.61875e-12 -2.15313e-11 -1.45531e-11 -4.98844e-12 -2.85058e-11 -1.48368e-10 2.2088e-11 -1.62803e-10 -1.69706e-10 -1.77116e-10 4.10851e-11 -1.7516e-10 6.06261e-11 -2.45412e-10 8.08819e-11 -2.1886e-10 -4.82425e-10 1.03803e-10 -5.18531e-11 1.01916e-10 -2.92714e-10 1.17152e-10 -1.55775e-10 1.24089e-10 -1.39326e-10 -1.32112e-10 1.23448e-10 -1.52928e-10 1.13136e-10 -1.69317e-10 -4.6942e-10 1.05784e-10 -4.95074e-10 1.17447e-10 1.32208e-10 1.36957e-10 8.04916e-11 -3.85353e-10 -2.61737e-11 1.35048e-10 -2.80924e-10 -3.35558e-11 -1.3238e-10 -7.80074e-11 1.06118e-10 -2.29234e-10 9.72536e-11 -2.5756e-10 -2.71773e-10 -3.55573e-10 -4.15143e-10 -1.26853e-11 -6.84937e-12 -2.86022e-10 -9.12754e-11 1.03752e-10 3.11085e-11 -3.0929e-10 1.22201e-11 -5.35467e-10 3.81115e-12 -4.97542e-10 -4.44019e-10 -3.43286e-10 -4.98486e-10 -3.16938e-10 -1.98966e-11 -2.4842e-11 -1.0472e-10 -4.29855e-10 9.97374e-11 -3.79579e-11 -4.86768e-10 -4.59821e-10 -3.86368e-10 -6.38881e-11 -4.33065e-10 -3.05771e-10 -7.70872e-11 3.35391e-11 -3.00307e-10 -9.03833e-11 -1.17982e-10 -4.16195e-10 9.26699e-11 -6.48681e-11 -1.03953e-10 -1.17119e-10 -3.80996e-10 -4.74749e-10 -1.72222e-10 -1.59898e-10 -3.53195e-10 -5.07911e-11 -1.97235e-10 -1.31212e-10 -4.02149e-10 8.18784e-11 -3.25589e-10 -5.2443e-10 -3.72756e-10 -2.1183e-10 -4.6696e-11 -3.28944e-10 -4.03625e-11 6.3715e-11 -4.97585e-10 -2.63121e-10 -3.7128e-10 -2.67714e-11 -1.40238e-10 -3.87675e-10 7.09434e-11 -2.98883e-10 -1.13411e-11 -2.56831e-10 -1.3766e-10 -4.69165e-10 -4.87178e-10 -1.43319e-10 -3.10305e-11 2.70041e-11 -3.57639e-10 -1.50051e-10 -3.57401e-10 -4.00745e-10 -1.63551e-10 -2.20411e-10 5.95857e-11 4.36121e-12 -3.89289e-10 -2.07018e-10 -4.0722e-10 -1.99707e-10 -3.72e-10 -1.73362e-10 -1.76919e-10 -3.35061e-10 -4.58796e-10 -4.42788e-10 -1.68513e-10 -2.32344e-10 -1.56942e-10 -4.60391e-10 -1.72301e-10 -1.56237e-10 4.78963e-11 -4.77836e-10 1.61468e-11 -3.41657e-10 -5.53021e-10 -6.29003e-11 -4.83002e-10 -5.2186e-10 -5.12106e-10 -5.08638e-10 -3.90204e-11 -8.95111e-11 -1.72357e-11 -4.95444e-10 -4.2506e-10 -1.64077e-10 -3.14617e-10 -5.43663e-10 -1.87333e-10 -2.43382e-10 3.6311e-11 -5.6167e-10 -7.77672e-11 -5.69701e-10 -4.56362e-10 -5.63969e-10 -4.43207e-10 -5.21298e-10 -4.29562e-10 -1.66793e-10 1.05974e-10 -1.46945e-11 -2.93492e-10 1.26504e-10 -5.22149e-10 -2.01021e-10 -2.01877e-11 2.28678e-11 -5.28451e-10 -4.43889e-11 -5.24856e-10 -5.08679e-11 -2.27555e-10 -4.7276e-10 -3.80379e-11 -4.46303e-10 9.66928e-11 -4.19891e-10 -4.06814e-10 -3.93851e-10 -2.14719e-10 -3.68239e-10 4.72234e-11 -3.42999e-10 -3.30512e-10 -3.18107e-10 -2.41423e-11 -4.97687e-11 -2.81254e-10 -2.69041e-10 -1.30205e-10 -2.44634e-10 1.13372e-10 -2.15144e-10 -5.22668e-10 -4.99983e-10 -5.60401e-10 -5.63677e-10 -8.08437e-12 -1.43627e-10 -1.30635e-10 -1.17584e-10 -1.04417e-10 -9.11256e-11 -1.38425e-10 -6.41509e-11 -5.17522e-11 -4.3219e-11 -2.99764e-10 -1.12647e-11 -1.45766e-10 1.84874e-11 3.30561e-11 4.77122e-11 6.235e-11 7.79112e-11 8.89813e-11 
</DataArray>
<DataArray Name="Strain_12" format="ascii" type="Float64">
5.24899e-11 -5.48982e-13 -4.03478e-12 4.74776e-12 -2.54861e-12 -8.8025e-13 -6.10679e-13 -1.06936e-12 -1.26367e-12 -1.42898e-12 -1.59813e-12 -1.73732e-12 -1.84051e-12 -1.91699e-12 -1.97291e-12 -2.00901e-12 -2.02502e-12 -2.01845e-12 -1.98978e-12 -1.93959e-12 -1.86554e-12 -1.76724e-12 -1.64978e-12 -1.45022e-12 -1.49956e-12 -8.76353e-13 -9.18436e-13 1.22166e-13 2.78108e-12 -3.87649e-13 2.58495e-14 6.91557e-13 -2.34726e-14 -1.76115e-14 -2.95898e-14 -3.31682e-14 2.57096e-13 -1.86114e-13 -5.68299e-13 -2.11318e-12 -7.77791e-13 -1.18318e-12 -1.0386e-12 -4.39032e-15 -9.1799e-13 -4.60012e-13 -7.78135e-13 2.57847e-13 1.786e-12 -3.76817e-14 2.54431e-12 -1.99999e-12 -3.70189e-12 -2.41111e-12 -9.33532e-13 -3.10852e-14 8.48487e-13 1.26297e-12 1.27569e-12 1.20805e-12 1.31304e-12 -4.29457e-14 2.62004e-12 3.39807e-13 1.6515e-12 -1.04352e-13 5.35862e-14 -1.27256e-14 5.17355e-11 1.62319e-14 -2.24949e-12 -3.75123e-14 2.74843e-13 -3.44849e-14 -5.98429e-15 5.14028e-13 1.01628e-12 1.28999e-12 1.2166e-12 8.87339e-13 1.4485e-12 1.53171e-12 1.60979e-12 1.67856e-12 1.73383e-12 -3.26839e-11 1.81519e-12 1.84456e-12 1.86408e-12 1.87716e-12 1.88224e-12 -2.88498e-11 1.82826e-12 1.77113e-12 1.63154e-12 9.34515e-13 4.7935e-13 -1.59201e-11 5.7761e-11 6.47068e-12 -3.32122e-12 1.79618e-12 8.01821e-14 -7.57947e-12 -2.09148e-13 9.01525e-13 -1.51757e-12 3.81428e-13 1.89059e-12 -1.52974e-12 3.68763e-13 -2.89548e-12 5.20139e-12 3.73529e-12 1.82531e-11 8.59158e-12 -3.52569e-11 1.22887e-11 1.47675e-10 6.70979e-11 -2.10406e-12 -1.78817e-14 1.20034e-11 5.52145e-11 8.60554e-12 -4.67207e-13 3.78189e-12 -5.62582e-12 -2.41688e-12 -1.27158e-12 -2.97324e-12 -1.56125e-12 -3.07983e-12 7.14504e-11 1.77406e-12 -8.19187e-11 1.09303e-11 1.47389e-11 7.95625e-12 -1.52253e-11 1.86997e-12 1.85978e-13 -9.44431e-13 -4.2268e-11 -8.37734e-14 1.17363e-14 1.94847e-14 3.17968e-12 9.36504e-13 -1.75481e-11 1.22102e-12 1.37607e-12 -2.48447e-12 2.94256e-12 -7.62079e-13 -1.40184e-12 1.54193e-12 7.78054e-14 2.36278e-12 8.47827e-13 5.88854e-11 9.70919e-12 3.56985e-11 5.32637e-12 4.58761e-12 3.47909e-12 2.21364e-12 -1.02657e-13 -5.0188e-11 -4.83794e-13 6.58525e-14 5.17294e-14 7.71076e-11 1.75886e-12 -3.19123e-15 -5.56767e-12 -7.48268e-13 2.66972e-12 2.65559e-14 -1.65907e-12 -2.22508e-12 3.6171e-14 -1.00091e-12 1.71646e-12 7.84881e-15 -3.89067e-14 7.69678e-11 9.7661e-13 1.13366e-14 2.01048e-13 -7.41587e-13 -2.40565e-12 8.9993e-13 -1.27329e-10 1.73413e-13 -5.80288e-11 3.46416e-14 -3.85064e-11 4.2009e-12 7.60243e-11 -1.01499e-13 6.27055e-11 -4.88123e-13 7.2136e-11 -3.30097e-11 2.51351e-12 2.05001e-12 2.11807e-13 -1.1211e-11 -5.52272e-12 -3.85119e-11 -6.17972e-11 5.32596e-13 -9.53468e-14 7.43792e-11 -1.49201e-13 -4.6202e-11 -1.25306e-12 -1.76441e-12 -2.09487e-12 1.26513e-12 5.90654e-12 -1.89736e-12 2.08665e-12 6.19856e-13 2.37334e-12 2.72147e-13 6.94072e-11 2.82019e-12 3.80054e-12 -1.57877e-12 -2.51593e-13 9.05544e-13 -6.54131e-11 -1.27089e-12 -6.88108e-11 -5.23644e-12 2.52315e-12 7.1663e-13 6.48777e-13 -5.41576e-11 3.37805e-12 -7.50105e-11 -4.88687e-12 -1.57088e-12 -7.11691e-13 -7.77271e-11 3.5257e-13 2.28262e-13 -4.15163e-13 -8.00723e-11 1.04618e-12 6.62581e-11 2.47623e-11 2.34496e-14 -5.52804e-12 4.55179e-11 -8.28789e-11 5.41347e-11 -3.19256e-14 -2.52857e-14 -4.68607e-13 6.13691e-11 -7.20084e-11 2.27993e-12 1.88657e-12 -7.82463e-11 6.90796e-13 1.07683e-12 -3.8342e-13 -6.45261e-11 -1.76794e-15 -3.57379e-11 7.44829e-11 -2.32176e-11 7.63168e-11 -2.95341e-13 3.0294e-12 5.97484e-12 3.26302e-12 -1.19114e-12 -2.11368e-12 -9.28064e-12 -7.03059e-13 7.34463e-13 2.46691e-13 -1.25184e-12 -8.22994e-11 2.00045e-12 2.22074e-12 -2.03134e-12 -3.321e-11 1.49995e-12 2.20721e-12 -1.57236e-12 6.04466e-13 -1.94704e-12 -2.17252e-12 -2.31011e-12 1.36015e-12 -2.46635e-12 -5.94861e-12 -2.46221e-12 -2.40584e-12 -2.32396e-12 1.53775e-12 4.60307e-14 -1.99657e-12 -1.88282e-12 3.31833e-12 -1.66828e-12 -1.65153e-11 8.22823e-13 8.72004e-13 -8.64058e-13 2.28525e-11 1.50178e-11 -4.9591e-12 -3.84021e-14 -5.98663e-14 -1.52142e-14 -2.46044e-14 -1.04289e-14 -1.54242e-11 -3.61295e-13 1.60238e-12 1.02718e-12 1.77768e-12 1.79156e-12 -6.98024e-12 7.70482e-13 4.80324e-13 1.91601e-13 -6.39771e-15 -1.19579e-12 -1.93327e-12 
</DataArray>
<DataArray Name="Strain_13" format="ascii" type="Float64">
0 0 0 0 0 0 0 0 0 0 0 0 0 0 0 0 0 0 0 0 0 0 0 0 0 0 0 0 0 0 0 0 0 0 0 0 0 0 0 0 0 0 0 0 0 0 0 0 0 0 0 0 0 0 0 0 0 0 0 0 0 0 0 0 0 0 0 0 0 0 0 0 0 0 0 0 0 0 0 0 0 0 0 0 0 0 0 0 0 0 0 0 0 0 0 0 0 0 0 0 0 0 0 0 0 0 0 0 0 0 0 0 0 0 0 0 0 0 0 0 0 0 0 0 0 0 0 0 0 0 0 0 0 0 0 0 0 0 0 0 0 0 0 0 0 0 0 0 0 0 0 0 0 0 0 0 0 0 0 0 0 0 0 0 0 0 0 0 0 0 0 0 0 0 0 0 0 0 0 0 0 0 0 0 0 0 0 0 0 0 0 0 0 0 0 0 0 0 0 0 0 0 0 0 0 0 0 0 0 0 0 0 0 0 0 0 0 0 0 0 0 0 0 0 0 0 0 0 0 0 0 0 0 0 0 0 0 0 0 0 0 0 0 0 0 0 0 0 0 0 0 0 0 0 0 0 0 0 0 0 0 0 0 0 0 0 0 0 0 0 0 0 0 0 0 0 0 0 0 0 0 0 0 0 0 0 0 0 0 0 0 0 0 0 0 0 0 0 0 0 0 0 0 0 0 0 0 0 0 0 0 0 0 0 0 0 0 0 0 0 0 0 0 0 0 0 0 0 0 0 0 0 0 0 0 0 
</DataArray>
<DataArray Name="Strain_23" format="ascii" type="Float64">
0 0 0 0 0 0 0 0 0 0 0 0 0 0 0 0 0 0 0 0 0 0 0 0 0 0 0 0 0 0 0 0 0 0 0 0 0 0 0 0 0 0 0 0 0 0 0 0 0 0 0 0 0 0 0 0 0 0 0 0 0 0 0 0 0 0 0 0 0 0 0 0 0 0 0 0 0 0 0 0 0 0 0 0 0 0 0 0 0 0 0 0 0 0 0 0 0 0 0 0 0 0 0 0 0 0 0 0 0 0 0 0 0 0 0 0 0 0 0 0 0 0 0 0 0 0 0 0 0 0 0 0 0 0 0 0 0 0 0 0 0 0 0 0 0 0 0 0 0 0 0 0 0 0 0 0 0 0 0 0 0 0 0 0 0 0 0 0 0 0 0 0 0 0 0 0 0 0 0 0 0 0 0 0 0 0 0 0 0 0 0 0 0 0 0 0 0 0 0 0 0 0 0 0 0 0 0 0 0 0 0 0 0 0 0 0 0 0 0 0 0 0 0 0 0 0 0 0 0 0 0 0 0 0 0 0 0 0 0 0 0 0 0 0 0 0 0 0 0 0 0 0 0 0 0 0 0 0 0 0 0 0 0 0 0 0 0 0 0 0 0 0 0 0 0 0 0 0 0 0 0 0 0 0 0 0 0 0 0 0 0 0 0 0 0 0 0 0 0 0 0 0 0 0 0 0 0 0 0 0 0 0 0 0 0 0 0 0 0 0 0 0 0 0 0 0 0 0 0 0 0 0 0 0 0 0 
</DataArray>
<DataArray Name="Strain_33" format="ascii" type="Float64">
1 1 1 1 1 1 1 1 1 1 1 1 1 1 1 1 1 1 1 1 1 1 1 1 1 1 1 1 1 1 1 1 1 1 1 1 1 1 1 1 1 1 1 1 1 1 1 1 1 1 1 1 1 1 1 1 1 1 1 1 1 1 1 1 1 1 1 1 1 1 1 1 1 1 1 1 1 1 1 1 1 1 1 1 1 1 1 1 1 1 1 1 1 1 1 1 1 1 1 1 1 1 1 1 1 1 1 1 1 1 1 1 1 1 1 1 1 1 1 1 1 1 1 1 1 1 1 1 1 1 1 1 1 1 1 1 1 1 1 1 1 1 1 1 1 1 1 1 1 1 1 1 1 1 1 1 1 1 1 1 1 1 1 1 1 1 1 1 1 1 1 1 1 1 1 1 1 1 1 1 1 1 1 1 1 1 1 1 1 1 1 1 1 1 1 1 1 1 1 1 1 1 1 1 1 1 1 1 1 1 1 1 1 1 1 1 1 1 1 1 1 1 1 1 1 1 1 1 1 1 1 1 1 1 1 1 1 1 1 1 1 1 1 1 1 1 1 1 1 1 1 1 1 1 1 1 1 1 1 1 1 1 1 1 1 1 1 1 1 1 1 1 1 1 1 1 1 1 1 1 1 1 1 1 1 1 1 1 1 1 1 1 1 1 1 1 1 1 1 1 1 1 1 1 1 1 1 1 1 1 1 1 1 1 1 1 1 1 1 1 1 1 1 1 1 1 1 1 1 1 1 1 1 1 1 1 
</DataArray>
<DataArray Name="Stress_11" format="ascii" type="Float64">