<?xml version="1.0"?>
<VTKFile byte_order="LittleEndian" type="UnstructuredGrid" version="0.1">
<UnstructuredGrid>
<Piece NumberOfCells="336" NumberOfPoints="440">
<PointData>
<DataArray Name="Warping_X" format="ascii" type="Float64">
0 0 0 0 0 0 0 0 0 0 0 0 0 0 0 0 0 0 0 0 0 0 0 0 0 0 0 0 0 0 0 0 0 0 0 0 0 0 0 0 0 0 0 0 0 0 0 0 0 0 0 0 0 0 0 0 0 0 0 0 0 0 0 0 0 0 0 0 0 0 0 0 0 0 0 0 0 0 0 0 0 0 0 0 0 0 0 0 0 0 0 0 0 0 0 0 0 0 0 0 0 0 0 0 0 0 0 0 0 0 0 0 0 0 0 0 0 0 0 0 0 0 0 0 0 0 0 0 0 0 0 0 0 0 0 0 0 0 0 0 0 0 0 0 0 0 0 0 0 0 0 0 0 0 0 0 0 0 0 0 0 0 0 0 0 0 0 0 0 0 0 0 0 0 0 0 0 0 0 0 0 0 0 0 0 0 0 0 0 0 0 0 0 0 0 0 0 0 0 0 0 0 0 0 0 0 0 0 0 0 0 0 0 0 0 0 0 0 0 0 -0 0 0 0 0 0 0 0 0 0 0 0 0 0 0 0 0 0 0 0 0 0 0 0 0 0 0 0 0 0 0 0 0 0 0 0 0 0 0 0 0 0 0 0 0 0 0 0 0 0 0 0 0 0 0 0 0 0 0 0 0 0 0 0 0 0 0 0 0 0 0 0 0 0 0 0 0 0 0 0 0 0 0 0 0 0 0 0 0 0 0 0 0 0 0 0 0 0 0 0 0 0 0 0 0 0 0 0 0 0 -0 0 0 0 0 0 0 0 0 0 0 0 0 0 0 0 0 0 0 0 0 0 0 0 0 0 0 0 0 0 0 0 0 0 0 0 0 0 0 0 0 0 0 0 0 0 0 0 0 0 0 -0 0 0 0 0 0 0 0 0 0 0 0 0 0 0 0 0 0 0 0 0 0 0 0 0 0 0 0 0 0 0 0 0 0 0 0 0 0 0 0 0 0 0 0 0 0 0 0 0 0 0 0 0 0 0 0 0 0 0 
</DataArray>
<DataArray Name="Warping_Y" format="ascii" type="Float64">
0 0 0 0 0 0 0 0 0 0 0 0 0 0 0 0 0 0 0 0 0 0 0 0 0 0 0 0 0 0 0 0 0 0 0 0 0 0 0 0 0 0 0 0 0 0 0 0 0 0 0 0 0 0 0 0 0 0 0 0 0 0 0 0 0 0 0 0 0 0 0 0 0 0 0 0 0 0 0 0 0 0 0 0 0 0 0 0 0 0 0 0 0 0 0 0 0 0 0 0 0 0 0 0 0 0 0 0 0 0 0 0 0 0 0 0 0 0 0 0 0 0 0 0 0 0 0 0 0 0 0 0 0 0 0 0 0 0 0 0 0 0 0 0 0 0 0 0 0 0 0 0 0 0 0 0 0 0 0 0 0 0 0 0 0 0 0 0 0 0 0 0 0 0 0 0 0 0 0 0 0 0 0 0 0 0 0 0 0 0 0 0 0 0 0 0 0 0 0 0 0 0 0 0 0 0 0 0 0 0 0 0 0 0 0 0 0 0 0 0 -0 0 0 0 0 -0 0 0 0 0 0 0 0 0 0 0 0 0 0 0 0 0 0 0 0 0 0 0 0 0 0 0 0 0 0 0 0 0 0 0 0 0 0 0 0 0 0 0 0 0 0 0 0 0 0 0 0 0 0 0 0 0 0 0 0 0 0 0 0 0 0 0 0 0 0 0 0 0 0 0 0 0 0 0 0 0 0 0 0 0 0 0 0 0 0 0 0 0 0 0 0 0 0 0 0 0 0 0 0 0 -0 0 0 0 0 0 0 0 0 0 0 0 0 0 0 0 0 0 0 0 0 0 0 0 0 0 0 -0 0 0 0 0 0 0 0 0 0 0 0 0 0 0 0 0 0 0 0 0 0 0 0 0 0 0 0 0 0 0 0 0 0 0 0 0 0 0 0 0 0 0 0 0 0 0 0 0 0 0 0 0 0 0 0 0 0 0 0 0 0 0 0 0 0 0 0 0 0 0 0 0 0 0 0 0 0 0 0 0 0 0 
</DataArray>
<DataArray Name="Warping_Z" format="ascii" type="Float64">
0 0 0 0 0 0 0 0 0 0 0 0 0 0 0 0 0 0 0 0 0 0 0 0 0 0 0 0 0 0 0 0 0 0 0 0 0 0 0 0 0 0 0 0 0 0 0 0 0 0 0 0 0 0 0 0 0 0 0 0 0 0 0 0 0 0 0 0 0 0 0 0 0 0 0 0 0 0 0 0 0 0 0 0 0 0 0 0 0 0 0 0 0 0 0 0 0 0 0 0 0 0 0 0 0 0 0 0 0 0 0 0 0 0 0 0 0 0 0 0 0 0 0 0 0 0 0 0 0 0 0 0 0 0 0 0 0 0 0 0 0 0 0 0 0 0 0 0 0 0 0 0 0 0 0 0 0 0 0 0 0 0 0 0 0 0 0 0 0 0 0 0 0 0 0 0 0 0 0 0 0 0 0 0 0 0 0 0 0 0 0 0 0 0 0 0 0 0 0 0 0 0 0 0 0 0 0 0 0 0 0 0 0 0 0 0 0 0 0 0 0 0 0 0 0 0 0 0 0 0 0 0 0 0 0 0 0 0 0 0 0 0 0 0 0 0 0 0 0 0 0 0 0 0 0 0 0 0 0 0 0 0 0 0 0 0 0 0 0 0 0 0 0 0 0 0 0 0 0 0 0 0 0 0 0 0 0 0 0 0 0 0 0 0 0 0 0 0 0 0 0 0 0 0 0 0 0 0 0 0 0 0 0 0 0 0 0 0 0 0 0 0 0 0 0 0 0 0 0 0 0 0 0 0 0 0 0 0 0 0 0 0 0 0 0 0 0 0 0 0 0 0 0 0 0 0 0 0 0 0 0 0 0 0 0 0 0 0 0 0 0 0 0 0 0 0 0 0 0 0 0 0 0 0 0 0 0 0 0 0 0 0 0 0 0 0 0 0 0 0 0 0 0 0 0 0 0 0 0 0 0 0 0 0 0 0 0 0 0 0 0 0 0 0 0 0 0 0 0 0 0 0 0 0 0 0 0 0 0 0 
</DataArray>
</PointData>
<CellData>
<DataArray Name="MaterialId" format="ascii" type="Float64">
4 3 3 3 3 3 3 3 3 3 3 3 3 3 3 3 3 3 3 3 3 3 3 3 3 3 3 3 1 1 1 1 1 1 1 1 1 1 3 3 3 3 3 1 3 3 3 3 3 1 3 3 3 3 3 1 3 3 3 3 3 1 3 3 1 1 1 1 4 1 3 1 1 1 3 3 3 3 3 1 3 3 3 3 3 4 3 3 3 3 3 4 3 3 3 3 3 4 4 3 3 2 2 4 2 2 2 2 2 4 2 2 2 4 4 4 4 4 4 4 3 1 4 4 4 2 4 2 1 4 4 4 1 4 3 4 4 4 4 4 3 1 4 4 2 1 1 3 3 4 3 3 3 3 1 3 3 1 3 4 4 4 4 4 3 3 3 3 4 2 1 1 4 3 1 3 3 3 1 3 3 1 3 3 1 1 4 3 1 1 1 3 3 4 4 4 1 4 1 4 3 4 3 4 4 2 3 2 4 3 4 4 2 3 4 3 4 2 3 2 3 3 2 4 3 3 2 4 3 3 3 3 3 4 3 4 3 3 2 3 4 3 4 1 3 2 4 3 1 3 4 3 4 4 1 3 4 4 4 1 1 4 4 4 2 3 4 3 3 3 4 1 4 4 4 4 3 3 4 3 1 3 4 3 3 3 3 4 4 3 1 4 3 4 3 3 3 3 3 3 3 4 3 3 3 4 1 3 3 1 3 4 3 3 3 4 4 4 1 1 1 1 1 4 1 1 3 3 3 4 3 3 3 3 3 3 
</DataArray>
<DataArray Name="FiberAngle" format="ascii" type="Float64">
0 0 0 0 0 0 0 0 0 0 0 0 0 0 0 0 0 0 0 0 0 0 0 0 0 0 0 0 0 0 0 0 0 0 0 0 0 0 0 0 0 0 0 0 0 0 0 0 0 0 0 0 0 0 0 0 0 0 0 0 0 0 0 0 0 0 0 0 0 0 0 0 0 0 0 0 0 0 0 0 0 0 0 0 0 0 0 0 0 0 0 0 0 0 0 0 0 0 0 0 0 0 0 0 0 0 0 0 0 0 0 0 0 0 0 0 0 0 0 0 0 0 0 0 0 0 0 0 0 0 0 0 0 0 0 0 0 0 0 0 0 0 0 0 0 0 0 0 0 0 0 0 0 0 0 0 0 0 0 0 0 0 0 0 0 0 0 0 0 0 0 0 0 0 0 0 0 0 0 0 0 0 0 0 0 0 0 0 0 0 0 0 0 0 0 0 0 0 0 0 0 0 0 0 0 0 0 0 0 0 0 0 0 0 0 0 0 0 0 0 0 0 0 0 0 0 0 0 0 0 0 0 0 0 0 0 0 0 0 0 0 0 0 0 0 0 0 0 0 0 0 0 0 0 0 0 0 0 0 0 0 0 0 0 0 0 0 0 0 0 0 0 0 0 0 0 0 0 0 0 0 0 0 0 0 0 0 0 0 0 0 0 0 0 0 0 0 0 0 0 0 0 0 0 0 0 0 0 0 0 0 0 0 0 0 0 0 0 0 0 0 0 0 0 0 0 0 0 0 0 0 0 0 0 0 0 
</DataArray>
<DataArray Name="Strain_11" format="ascii" type="Float64">
0 0 0 0 0 0 0 0 0 0 0 0 0 0 0 0 0 0 0 0 0 0 0 0 0 0 0 0 0 0 0 0 0 0 0 0 0 0 0 0 0 0 0 0 0 0 0 0 0 0 0 0 0 0 0 0 0 0 0 0 0 0 0 0 0 0 0 0 0 0 0 0 0 0 0 0 0 0 0 0 0 0 0 0 0 0 0 0 0 0 0 0 0 0 0 0 0 0 0 0 0 0 0 0 0 0 0 0 0 0 0 0 0 0 0 0 0 0 0 0 0 0 0 0 0 0 0 0 0 0 0 0 0 0 0 0 0 0 0 0 0 0 0 0 0 0 0 0 0 0 0 0 0 0 0 0 0 0 0 0 0 0 0 0 0 0 0 0 0 0 0 0 0 0 0 0 0 0 0 0 0 0 0 0 0 0 0 0 0 0 0 0 0 0 0 0 0 0 0 0 0 0 0 0 0 0 0 0 0 0 0 0 0 0 0 0 0 0 0 0 0 0 0 0 0 0 0 0 0 0 0 0 0 0 0 0 0 0 0 0 0 0 0 0 0 0 0 0 0 0 0 0 0 0 0 0 0 0 0 0 0 0 0 0 0 0 0 0 0 0 0 0 0 0 0 0 0 0 0 0 0 0 0 0 0 0 0 0 0 0 0 0 0 0 0 0 0 0 0 0 0 0 0 0 0 0 0 0 0 0 0 0 0 0 0 0 0 0 0 0 0 0 0 0 0 0 0 0 0 0 0 0 0 0 0 0 
</DataArray>
<DataArray Name="Strain_22" format="ascii" type="Float64">
0 0 0 0 0 0 0 0 0 0 0 0 0 0 0 0 0 0 0 0 0 0 0 0 0 0 0 0 0 0 0 0 0 0 0 0 0 0 0 0 0 0 0 0 0 0 0 0 0 0 0 0 0 0 0 0 0 0 0 0 0 0 0 0 0 0 0 0 0 0 0 0 0 0 0 0 0 0 0 0 0 0 0 0 0 0 0 0 0 0 0 0 0 0 0 0 0 0 0 0 0 0 0 0 0 0 0 0 0 0 0 0 0 0 0 0 0 0 0 0 0 0 0 0 0 0 0 0 0 0 0 0 0 0 0 0 0 0 0 0 0 0 0 0 0 0 0 0 0 0 0 0 0 0 0 0 0 0 0 0 0 0 0 0 0 0 0 0 0 0 0 0 0 0 0 0 0 0 0 0 0 0 0 0 0 0 0 0 0 0 0 0 0 0 0 0 0 0 0 0 0 0 0 0 0 0 0 0 0 0 0 0 0 0 0 0 0 0 0 0 0 0 0 0 0 0 0 0 0 0 0 0 0 0 0 0 0 0 0 0 0 0 0 0 0 0 0 0 0 0 0 0 0 0 0 0 0 0 0 0 0 0 0 0 0 0 0 0 0 0 0 0 0 0 0 0 0 0 0 0 0 0 0 0 0 0 0 0 0 0 0 0 0 0 0 0 0 0 0 0 0 0 0 0 0 0 0 0 0 0 0 0 0 0 0 0 0 0 0 0 0 0 0 0 0 0 0 0 0 0 0 0 0 0 0 0 
</DataArray>
<DataArray Name="Strain_12" format="ascii" type="Float64">
0 0 0 0 0 0 0 0 0 0 0 0 0 0 0 0 0 0 0 0 0 0 0 0 0 0 0 0 0 0 0 0 0 0 0 0 0 0 0 0 0 0 0 0 0 0 0 0 0 0 0 0 0 0 0 0 0 0 0 0 0 0 0 0 0 0 0 0 0 0 0 0 0 0 0 0 0 0 0 0 0 0 0 0 0 0 0 0 0 0 0 0 0 0 0 0 0 0 0 0 0 0 0 0 0 0 0 0 0 0 0 0 0 0 0 0 0 0 0 0 0 0 0 0 0 0 0 0 0 0 0 0 0 0 0 0 0 0 0 0 0 0 0 0 0 0 0 0 0 0 0 0 0 0 0 0 0 0 0 0 0 0 0 0 0 0 0 0 0 0 0 0 0 0 0 0 0 0 0 0 0 0 0 0 0 0 0 0 0 0 0 0 0 0 0 0 0 0 0 0 0 0 0 0 0 0 0 0 0 0 0 0 0 0 0 0 0 0 0 0 0 0 0 0 0 0 0 0 0 0 0 0 0 0 0 0 0 0 0 0 0 0 0 0 0 0 0 0 0 0 0 0 0 0 0 0 0 0 0 0 0 0 0 0 0 0 0 0 0 0 0 0 0 0 0 0 0 0 0 0 0 0 0 0 0 0 0 0 0 0 0 0 0 0 0 0 0 0 0 0 0 0 0 0 0 0 0 0 0 0 0 0 0 0 0 0 0 0 0 0 0 0 0 0 0 0 0 0 0 0 0 0 0 0 0 0 
</DataArray>
<DataArray Name="Strain_13" format="ascii" type="Float64">
-6.55895e-09 4.98817e-10 -9.34343e-09 -1.36204e-08 -1.48133e-08 -1.46163e-08 -1.44222e-08 -1.42094e-08 -1.39648e-08 -1.36824e-08 -1.33631e-08 -1.30094e-08 -1.26205e-08 -1.21955e-08 -1.17378e-08 -1.12529e-08 -1.07469e-08 -1.02259e-08 -9.69557e-09 -9.1624e-09 -8.63177e-09 -8.10633e-09 -7.59908e-09 -7.10707e-09 -6.7091e-09 -6.22236e-09 -6.37693e-09 4.20076e-09 1.08152e-09 2.57732e-11 1.41341e-09 5.94362e-10 3.47529e-09 4.48111e-09 5.45437e-09 6.35481e-09 7.37485e-09 1.56765e-09 5.94082e-09 6.06936e-09 5.94225e-09 5.9462e-09 5.81554e-09 2.66409e-09 5.35399e-09 4.97449e-09 4.4509e-09 3.91397e-09 3.39595e-09 3.70088e-09 1.67686e-09 -4.00824e-11 -1.29763e-09 -2.08441e-09 -2.83005e-09 4.71348e-09 -4.38645e-09 -4.96097e-09 -5.38901e-09 -5.69642e-09 -5.92952e-09 5.68262e-09 -6.22326e-09 -5.98735e-09 -7.18326e-09 -7.47909e-09 -6.46935e-09 6.62451e-09 -5.98754e-09 -3.60689e-09 3.70523e-09 -1.54434e-09 -1.75117e-10 7.44208e-09 -4.38923e-09 6.05919e-09 5.97328e-09 6.38763e-09 6.73642e-09 8.27225e-09 7.57101e-09 8.00209e-09 8.43491e-09 8.86903e-09 9.30391e-09 5.95744e-09 1.01701e-08 1.05941e-08 1.10102e-08 1.14175e-08 1.18136e-08 6.21548e-09 1.25706e-08 1.29306e-08 1.32747e-08 1.36041e-08 1.39209e-08 6.34198e-09 -4.7755e-09 9.63049e-09 3.10914e-09 6.63107e-09 2.97703e-09 6.18957e-09 -1.21966e-09 -3.00463e-09 -6.66328e-09 1.19087e-09 -4.08674e-09 6.07143e-09 8.02189e-10 3.91294e-09 2.79716e-09 5.87623e-09 -5.12689e-09 5.61627e-09 6.59896e-09 5.25908e-09 3.78047e-09 -1.32868e-08 1.78552e-09 -6.0472e-09 4.74224e-09 -7.26593e-09 4.20752e-09 -9.76337e-10 3.64657e-09 -2.97173e-09 -1.23652e-09 3.05954e-09 -2.29792e-10 2.07898e-09 -5.48034e-10 -1.30208e-08 -1.57704e-10 1.27436e-08 2.98229e-11 -1.50819e-09 -2.43122e-09 -5.68948e-09 1.21979e-08 -7.78694e-09 -3.25958e-09 7.58892e-09 1.19582e-09 2.4273e-09 -4.06289e-09 -1.50108e-09 6.98784e-09 -5.30076e-09 7.8589e-09 8.28715e-09 -1.14581e-08 1.22178e-08 -8.38237e-09 -5.78752e-09 8.71229e-09 -3.02278e-09 -2.29933e-09 -6.43335e-09 -7.88846e-09 -6.33311e-09 -1.39987e-08 -6.17454e-09 -9.18313e-09 1.28629e-08 1.03682e-08 9.43323e-09 8.54223e-09 -2.99022e-09 -7.53482e-09 -1.93916e-09 -1.20197e-08 -3.0441e-09 -6.74105e-09 -1.19489e-08 -1.33976e-08 1.15154e-08 -4.84335e-09 -1.32324e-08 -9.60864e-09 -3.83215e-09 5.62949e-09 9.13516e-09 -2.79717e-09 -9.89389e-10 -1.16126e-08 -3.83644e-09 -5.07611e-09 -1.70527e-09 -7.40258e-10 -1.2212e-08 1.35995e-08 -4.16127e-09 1.04624e-10 9.47648e-09 -5.80855e-09 4.59545e-09 1.41049e-09 -1.11681e-08 -4.63125e-09 -8.49578e-09 3.46704e-10 -1.01787e-08 5.57283e-09 6.74102e-09 9.96521e-09 2.96205e-09 -5.99103e-09 9.82189e-09 7.09733e-09 9.92981e-09 -1.22451e-09 -4.34801e-09 -1.0689e-08 -5.23343e-09 8.06764e-09 -6.76792e-09 -7.56212e-09 -2.28682e-09 1.42468e-08 1.28886e-08 -4.05645e-09 1.82111e-09 -5.99502e-09 1.07623e-08 -9.86448e-10 -9.63983e-09 1.18727e-08 4.76861e-09 -6.03234e-09 -5.69107e-09 6.3505e-09 1.03709e-08 -5.34862e-09 1.08017e-08 -5.16885e-09 1.1145e-08 2.13347e-09 4.15409e-09 9.01226e-09 1.30706e-08 1.16234e-08 -1.55602e-09 -6.51793e-09 8.1235e-10 1.20124e-08 5.02221e-09 8.29799e-10 -6.0318e-09 1.23868e-08 -6.78134e-09 -9.07688e-09 -1.40855e-08 -4.61195e-09 1.31801e-08 -1.3868e-08 1.30818e-08 -1.37078e-08 -6.97642e-09 -2.55859e-09 -8.02836e-09 -1.35153e-08 1.12201e-08 3.88239e-09 9.55385e-09 1.37183e-08 5.63558e-09 7.42657e-09 -6.30995e-09 1.40395e-08 6.86033e-09 1.43091e-08 -1.27213e-08 1.36059e-08 -1.23888e-08 5.18112e-10 1.25385e-08 -3.1534e-09 2.80643e-09 -9.22871e-09 -9.10494e-09 -4.03253e-09 4.84312e-10 6.08228e-09 6.64444e-09 -6.42906e-09 1.34056e-08 1.13188e-08 4.46124e-10 7.11675e-09 6.03992e-09 -1.33785e-08 8.15861e-09 -1.33635e-08 -3.61107e-09 -1.30504e-08 -1.28131e-08 -1.25325e-08 7.14999e-09 -1.18534e-08 -6.1939e-09 -1.10306e-08 -1.05764e-08 -1.01007e-08 -1.81433e-09 -5.58151e-09 -8.59446e-09 -8.08033e-09 3.31603e-10 -7.04713e-09 -4.77951e-09 6.54522e-09 4.809e-10 -9.22237e-09 -1.3588e-08 -1.41747e-08 -1.11618e-08 1.79699e-09 2.88804e-09 3.93185e-09 4.94693e-09 5.92148e-09 5.22985e-09 7.68512e-09 9.1887e-09 5.73976e-09 9.73883e-09 6.39933e-09 3.20426e-09 6.17976e-09 5.96636e-09 5.66951e-09 5.27381e-09 4.74528e-09 4.20877e-09 
</DataArray>
<DataArray Name="Strain_23" format="ascii" type="Float64">
1 1 1 1 1 1 1 1 1 1 1 1 1 1 1 1 1 1 1 1 1 1 1 1 1 1 1 1 1 1 1 1 1 1 1 1 1 1 1 1 1 1 1 1 1 1 1 1 1 1 1 1 1 1 1 1 1 1 1 1 1 1 1 1 1 1 1 1 1 1 1 1 1 1 1 1 1 1 1 1 1 1 1 1 1 1 1 1 1 1 1 1 1 1 1 1 1 1 1 1 1 1 1 1 1 1 1 1 1 1 1 1 1 1 1 1 1 1 1 1 1 1 1 1 1 1 1 1 1 1 1 1 1 1 1 1 1 1 1 1 1 1 1 1 1 1 1 1 1 1 1 1 1 1 1 1 1 1 1 1 1 1 1 1 1 1 1 1 1 1 1 1 1 1 1 1 1 1 1 1 1 1 1 1 1 1 1 1 1 1 1 1 1 1 1 1 1 1 1 1 1 1 1 1 1 1 1 1 1 1 1 1 1 1 1 1 1 1 1 1 1 1 1 1 1 1 1 1 1 1 1 1 1 1 1 1 1 1 1 1 1 1 1 1 1 1 1 1 1 1 1 1 1 1 1 1 1 1 1 1 1 1 1 1 1 1 1 1 1 1 1 1 1 1 1 1 1 1 1 1 1 1 1 1 1 1 1 1 1 1 1 1 1 1 1 1 1 1 1 1 1 1 1 1 1 1 1 1 1 1 1 1 1 1 1 1 1 1 1 1 1 1 1 1 1 1 1 1 1 1 1 1 1 1 1 1 
</DataArray>
<DataArray Name="Strain_33" format="ascii" type="Float64">
0 0 0 0 0 0 0 0 0 0 0 0 0 0 0 0 0 0 0 0 0 0 0 0 0 0 0 0 0 0 0 0 0 0 0 0 0 0 0 0 0 0 0 0 0 0 0 0 0 0 0 0 0 0 0 0 0 0 0 0 0 0 0 0 0 0 0 0 0 0 0 0 0 0 0 0 0 0 0 0 0 0 0 0 0 0 0 0 0 0 0 0 0 0 0 0 0 0 0 0 0 0 0 0 0 0 0 0 0 0 0 0 0 0 0 0 0 0 0 0 0 0 0 0 0 0 0 0 0 0 0 0 0 0 0 0 0 0 0 0 0 0 0 0 0 0 0 0 0 0 0 0 0 0 0 0 0 0 0 0 0 0 0 0 0 0 0 0 0 0 0 0 0 0 0 0 0 0 0 0 0 0 0 0 0 0 0 0 0 0 0 0 0 0 0 0 0 0 0 0 0 0 0 0 0 0 0 0 0 0 0 0 0 0 0 0 0 0 0 0 0 0 0 0 0 0 0 0 0 0 0 0 0 0 0 0 0 0 0 0 0 0 0 0 0 0 0 0 0 0 0 0 0 0 0 0 0 0 0 0 0 0 0 0 0 0 0 0 0 0 0 0 0 0 0 0 0 0 0 0 0 0 0 0 0 0 0 0 0 0 0 0 0 0 0 0 0 0 0 0 0 0 0 0 0 0 0 0 0 0 0 0 0 0 0 0 0 0 0 0 0 0 0 0 0 0 0 0 0 0 0 0 0 0 0 0 
</DataArray>
<DataArray Name="Stress_11" format="ascii" type="Float64">
0 0 0 0 0 0 0 0 0 0 0 0 0 0 0 0 0 0 0 0 0 0 0 0 0 0 0 0 0 0 0 0 0 0 0 0 0 0 0 0 0 0 0 0 0 0 0 0 0 0 0 0 0 0 0 0 0 0 0 0 0 0 0 0 0 0 0 0 0 0 0 0 0 0 0 0 0 0 0 0 0 0 0 0 0 0 0 0 0 0 0 0 0 0 0 0 0 0 0 0 0 0 0 0 0 0 0 0 0 0 0 0 0 0 0 0 0 0 0 0 0 0 0 0 0 0 0 0 0 0 0 0 0 0 0 0 0 0 0 0 0 0 0 0 0 0 0 0 0 0 0 0 0 0 0 0 0 0 0 0 0 0 0 0 0 0 0 0 0 0 0 0 0 0 0 0 0 0 0 0 0 0 0 0 0 0 0 0 0 0 0 0 0 0 0 0 0 0 0 0 0 0 0 0 0 0 0 0 0 0 0 0 0 0 0 0 0 0 0 0 0 0 0 0 0 0 0 0 0 0 0 0 0 0 0 0 0 0 0 0 0 0 0 0 0 0 0 0 0 0 0 0 0 0 0 0 0 0 0 0 0 0 0 0 0 0 0 0 0 0 0 0 0 0 0 0 0 0 0 0 0 0 0 0 0 0 0 0 0 0 0 0 0 0 0 0 0 0 0 0 0 0 0 0 0 0 0 0 0 0 0 0 0 0 0 0 0 0 0 0 0 0 0 0 0 0 0 0 0 0 0 0 0 0 0 0 
</DataArray>
<DataArray Name="Stress_22" format="ascii" type="Float64">
0 0 0 0 0 0 0 0 0 0 0 0 0 0 0 0 0 0 0 0 0 0 0 0 0 0 0 0 0 0 0 0 0 0 0 0 0 0 0 0 0 0 0 0 0 0 0 0 0 0 0 0 0 0 0 0 0 0 0 0 0 0 0 0 0 0 0 0 0 0 0 0 0 0 0 0 0 0 0 0 0 0 0 0 0 0 0 0 0 0 0 0 0 0 0 0 0 0 0 0 0 0 0 0 0 0 0 0 0 0 0 0 0 0 0 0 0 0 0 0 0 0 0 0 0 0 0 0 0 0 0 0 0 0 0 0 0 0 0 0 0 0 0 0 0 0 0 0 0 0 0 0 0 0 0 0 0 0 0 0 0 0 0 0 0 0 0 0 0 0 0 0 0 0 0 0 0 0 0 0 0 0 0 0 0 0 0 0 0 0 0 0 0 0 0 0 0 0 0 0 0 0 0 0 0 0 0 0 0 0 0 0 0 0 0 0 0 0 0 0 0 0 0 0 0 0 0 0 0 0 0 0 0 0 0 0 0 0 0 0 0 0 0 0 0 0 0 0 0 0 0 0 0 0 0 0 0 0 0 0 0 0 0 0 0 0 0 0 0 0 0 0 0 0 0 0 0 0 0 0 0 0 0 0 0 0 0 0 0 0 0 0 0 0 0 0 0 0 0 0 0 0 0 0 0 0 0 0 0 0 0 0 0 0 0 0 0 0 0 0 0 0 0 0 0 0 0 0 0 0 0 0 0 0 0 0 
</DataArray>
<DataArray Name="Stress_12" format="ascii" type="Float64">
0 0 0 0 0 0 0 0 0 0 0 0 0 0 0 0 0 0 0 0 0 0 0 0 0 0 0 0 0 0 0 0 0 0 0 0 0 0 0 0 0 0 0 0 0 0 0 0 0 0 0 0 0 0 0 0 0 0 0 0 0 0 0 0 0 0 0 0 0 0 0 0 0 0 0 0 0 0 0 0 0 0 0 0 0 0 0 0 0 0 0 0 0 0 0 0 0 0 0 0 0 0 0 0 0 0 0 0 0 0 0 0 0 0 0 0 0 0 0 0 0 0 0 0 0 0 0 0 0 0 0 0 0 0 0 0 0 0 0 0 0 0 0 0 0 0 0 0 0 0 0 0 0 0 0 0 0 0 0 0 0 0 0 0 0 0 0 0 0 0 0 0 0 0 0 0 0 0 0 0 0 0 0 0 0 0 0 0 0 0 0 0 0 0 0 0 0 0 0 0 0 0 0 0 0 0 0 0 0 0 0 0 0 0 0 0 0 0 0 0 0 0 0 0 0 0 0 0 0 0 0 0 0 0 0 0 0 0 0 0 0 0 0 0 0 0 0 0 0 0 0 0 0 0 0 0 0 0 0 0 0 0 0 0 0 0 0 0 0 0 0 0 0 0 0 0 0 0 0 0 0 0 0 0 0 0 0 0 0 0 0 0 0 0 0 0 0 0 0 0 0 0 0 0 0 0 0 0 0 0 0 0 0 0 0 0 0 0 0 0 0 0 0 0 0 0 0 0 0 0 0 0 0 0 0 0 
</DataArray>
<DataArray Name="Stress_13" format="ascii" type="Float64">
-0.117123 3.74112 -70.0757 -102.153 -111.1 -109.622 -108.166 -106.571 -104.736 -102.618 -100.223 -97.5702 -94.6535 -91.4662 -88.0334 -84.3964 -80.602 -76.6941 -72.7168 -68.718 -64.7383 -60.7975 -56.9931 -53.303 -50.3182 -46.6677 -47.827 31.5057 4.3261 0.103093 5.65366 2.37745 13.9012 17.9244 21.8175 25.4192 29.4994 6.27061 44.5562 45.5202 44.5669 44.5965 43.6166 10.6563 40.155 37.3087 33.3818 29.3548 25.4696 14.8035 12.5764 -0.300618 -9.73224 -15.633 -21.2254 18.8539 -32.8983 -37.2073 -40.4175 -42.7231 -44.4714 22.7305 -46.6745 -44.9051 -28.733 -29.9164 -25.8774 26.4981 -0.10692 -14.4276 27.7892 -6.17734 -0.700466 29.7683 -32.9193 45.4439 44.7996 47.9072 50.5231 33.089 56.7826 60.0156 63.2618 66.5177 69.7793 0.106382 76.2757 79.4555 82.5764 85.6309 88.6017 0.11099 94.2797 96.9791 99.5601 102.031 104.407 0.113249 -0.0852761 72.2286 23.3185 66.3107 29.7703 0.110527 -12.1966 -30.0463 -66.6328 11.9087 -40.8674 0.108418 8.02189 39.1294 27.9716 0.104932 -0.0915509 0.10029 0.117838 0.0939115 0.0675079 -0.237263 13.3914 -24.1888 0.0846822 -0.129748 0.0751338 -9.76337 0.0651168 -29.7173 -4.94608 0.0546342 -0.0041034 0.0371243 -2.19213 -0.232512 -1.18278 0.227563 0.000532547 -0.0269318 -0.0434143 -0.101597 91.4842 -31.1478 -0.0582062 0.135515 11.9582 9.70918 -16.2516 -11.2581 52.4088 -0.0946557 58.9417 62.1537 -85.9356 91.6332 -33.5295 -43.4064 65.3421 -12.0911 -17.245 -0.11488 -0.140864 -0.11309 -0.249975 -0.110259 -68.8735 96.4716 77.7619 70.7493 0.152539 -29.9022 -30.1393 -7.75666 -0.214635 -22.8308 -26.9642 -89.6168 -100.482 86.3657 -19.3734 -99.2432 -72.0648 -15.3286 42.2212 68.5137 -11.1887 -3.95756 -0.207367 -28.7733 -20.3044 -6.82109 -2.96103 -91.5902 101.996 -0.0743078 0.00186826 0.169221 -23.2342 0.082061 5.64197 -0.199428 -34.7344 -0.151709 2.60028 -0.18176 0.099514 67.4102 74.739 29.6205 -0.106982 73.6642 0.126737 0.177317 -12.2451 -32.6101 -0.190873 -39.2508 0.144064 -67.6792 -56.7159 -22.8682 106.851 96.6645 -40.5645 0.0325196 -44.9627 80.7171 -9.86448 -0.172139 89.045 35.7646 -45.2426 -42.6831 47.6287 0.185194 -40.1146 0.192886 -38.7663 83.5878 21.3347 31.1557 0.160932 98.0295 0.207558 -6.22407 -48.8845 8.1235 0.214505 37.6666 3.3192 -45.2385 0.221191 -50.8601 -0.162086 -0.251525 -18.4478 98.851 -0.24764 0.233601 -0.24478 -27.9057 -10.2344 -0.143362 -0.241343 0.200357 38.8239 71.6539 0.244968 42.2668 55.6993 -47.3246 0.250703 27.4413 0.255518 -0.227164 0.24296 -0.221226 3.88584 94.0391 -0.0563102 21.0483 -36.9148 -68.2871 -0.0720088 3.63234 45.6171 49.8333 -48.218 0.239384 0.202121 3.34593 28.467 0.107855 -100.339 0.145688 -100.226 -27.083 -97.8777 -96.0983 -93.9936 53.6249 -88.9005 -0.110604 -82.7297 -79.3228 -75.7556 -0.0323985 -22.3261 -64.4585 -60.6025 1.32641 -52.8534 -0.0853477 49.0892 3.60675 -69.1678 -0.24264 -0.253118 -0.199317 7.18797 11.5522 15.7274 19.7877 23.6859 0.0933894 30.7405 36.7548 43.0482 73.0413 47.995 0.0572185 46.3482 44.7477 42.5213 39.5535 35.5896 31.5658 
</DataArray>
<DataArray Name="Stress_23" format="ascii" type="Float64">
1.7857e+07 4e+09 4e+09 4e+09 4e+09 4e+09 4e+09 4e+09 4e+09 4e+09 4e+09 4e+09 4e+09 4e+09 4e+09 4e+09 4e+09 4e+09 4e+09 4e+09 4e+09 4e+09 4e+09 4e+09 4e+09 4e+09 4e+09 4e+09 4e+09 4e+09 4e+09 4e+09 4e+09 4e+09 4e+09 4e+09 4e+09 4e+09 4e+09 4e+09 4e+09 4e+09 4e+09 4e+09 4e+09 4e+09 4e+09 4e+09 4e+09 4e+09 4e+09 4e+09 4e+09 4e+09 4e+09 4e+09 4e+09 4e+09 4e+09 4e+09 4e+09 4e+09 4e+09 4e+09 4e+09 4e+09 4e+09 4e+09 1.7857e+07 4e+09 4e+09 4e+09 4e+09 4e+09 4e+09 4e+09 4e+09 4e+09 4e+09 4e+09 4e+09 4e+09 4e+09 4e+09 4e+09 1.7857e+07 4e+09 4e+09 4e+09 4e+09 4e+09 1.7857e+07 4e+09 4e+09 4e+09 4e+09 4e+09 1.7857e+07 1.7857e+07 4e+09 4e+09 3.8e+09 3.8e+09 1.7857e+07 3.8e+09 3.8e+09 3.8e+09 3.8e+09 3.8e+09 1.7857e+07 3.8e+09 3.8e+09 3.8e+09 1.7857e+07 1.7857e+07 1.7857e+07 1.7857e+07 1.7857e+07 1.7857e+07 1.7857e+07 4e+09 4e+09 1.7857e+07 1.7857e+07 1.7857e+07 3.8e+09 1.7857e+07 3.8e+09 4e+09 1.7857e+07 1.7857e+07 1.7857e+07 4e+09 1.7857e+07 4e+09 1.7857e+07 1.7857e+07 1.7857e+07 1.7857e+07 1.7857e+07 4e+09 4e+09 1.7857e+07 1.7857e+07 3.8e+09 4e+09 4e+09 4e+09 4e+09 1.7857e+07 4e+09 4e+09 4e+09 4e+09 4e+09 4e+09 4e+09 4e+09 4e+09 1.7857e+07 1.7857e+07 1.7857e+07 1.7857e+07 1.7857e+07 4e+09 4e+09 4e+09 4e+09 1.7857e+07 3.8e+09 4e+09 4e+09 1.7857e+07 4e+09 4e+09 4e+09 4e+09 4e+09 4e+09 4e+09 4e+09 4e+09 4e+09 4e+09 4e+09 4e+09 1.7857e+07 4e+09 4e+09 4e+09 4e+09 4e+09 4e+09 1.7857e+07 1.7857e+07 1.7857e+07 4e+09 1.7857e+07 4e+09 1.7857e+07 4e+09 1.7857e+07 4e+09 1.7857e+07 1.7857e+07 3.8e+09 4e+09 3.8e+09 1.7857e+07 4e+09 1.7857e+07 1.7857e+07 3.8e+09 4e+09 1.7857e+07 4e+09 1.7857e+07 3.8e+09 4e+09 3.8e+09 4e+09 4e+09 3.8e+09 1.7857e+07 4e+09 4e+09 3.8e+09 1.7857e+07 4e+09 4e+09 4e+09 4e+09 4e+09 1.7857e+07 4e+09 1.7857e+07 4e+09 4e+09 3.8e+09 4e+09 1.7857e+07 4e+09 1.7857e+07 4e+09 4e+09 3.8e+09 1.7857e+07 4e+09 4e+09 4e+09 1.7857e+07 4e+09 1.7857e+07 1.7857e+07 4e+09 4e+09 1.7857e+07 1.7857e+07 1.7857e+07 4e+09 4e+09 1.7857e+07 1.7857e+07 1.7857e+07 3.8e+09 4e+09 1.7857e+07 4e+09 4e+09 4e+09 1.7857e+07 4e+09 1.7857e+07 1.7857e+07 1.7857e+07 1.7857e+07 4e+09 4e+09 1.7857e+07 4e+09 4e+09 4e+09 1.7857e+07 4e+09 4e+09 4e+09 4e+09 1.7857e+07 1.7857e+07 4e+09 4e+09 1.7857e+07 4e+09 1.7857e+07 4e+09 4e+09 4e+09 4e+09 4e+09 4e+09 4e+09 1.7857e+07 4e+09 4e+09 4e+09 1.7857e+07 4e+09 4e+09 4e+09 4e+09 4e+09 1.7857e+07 4e+09 4e+09 4e+09 1.7857e+07 1.7857e+07 1.7857e+07 4e+09 4e+09 4e+09 4e+09 4e+09 1.7857e+07 4e+09 4e+09 4e+09 4e+09 4e+09 1.7857e+07 4e+09 4e+09 4e+09 4e+09 4e+09 4e+09 
</DataArray>
<DataArray Name="Stress_33" format="ascii" type="Float64">
0 0 0 0 0 0 0 0 0 0 0 0 0 0 0 0 0 0 0 0 0 0 0 0 0 0 0 0 0 0 0 0 0 0 0 0 0 0 0 0 0 0 0 0 0 0 0 0 0 0 0 0 0 0 0 0 0 0 0 0 0 0 0 0 0 0 0 0 0 0 0 0 0 0 0 0 0 0 0 0 0 0 0 0 0 0 0 0 0 0 0 0 0 0 0 0 0 0 0 0 0 0 0 0 0 0 0 0 0 0 0 0 0 0 0 0 0 0 0 0 0 0 0 0 0 0 0 0 0 0 0 0 0 0 0 0 0 0 0 0 0 0 0 0 0 0 0 0 0 0 0 0 0 0 0 0 0 0 0 0 0 0 0 0 0 0 0 0 0 0 0 0 0 0 0 0 0 0 0 0 0 0 0 0 0 0 0 0 0 0 0 0 0 0 0 0 0 0 0 0 0 0 0 0 0 0 0 0 0 0 0 0 0 0 0 0 0 0 0 0 0 0 0 0 0 0 0 0 0 0 0 0 0 0 0 0 0 0 0 0 0 0 0 0 0 0 0 0 0 0 0 0 0 0 0 0 0 0 0 0 0 0 0 0 0 0 0 0 0 0 0 0 0 0 0 0 0 0 0 0 0 0 0 0 0 0 0 0 0 0 0 0 0 0 0 0 0 0 0 0 0 0 0 0 0 0 0 0 0 0 0 0 0 0 0 0 0 0 0 0 0 0 0 0 0 0 0 0 0 0 0 0 0 0 0 0 
</DataArray>
</CellData>
<Points>
<DataArray NumberOfComponents="3" format="ascii" type="Float64">
-1.4074 0.0125469 0 -1.29024 0.0238452 0 -1.23007 0.0260002 0 -1.16977 0.049743 0 -1.10903 0.0483716 0 -1.04833 0.0453824 0 -0.987663 0.0408597 0 -0.92701 0.0348419 0 -0.866379 0.0273441 0 -0.805792 0.0184351 0 -0.745265 0.00823359 0 -0.684785 -0.00312044 0 -0.624331 -0.0155749 0 -0.563913 -0.029079 0 -0.503551 -0.0435224 0 -0.443259 -0.058755 0 -0.383045 -0.074591 0 -0.322913 -0.0908358 0 -0.262867 -0.107283 0 -0.202909 -0.123709 0 -0.143029 -0.139901 0 -0.0832264 -0.155693 0 -0.0235244 -0.170874 0 0.0360573 -0.185165 0 0.0955149 -0.198283 0 0.154884 -0.209964 0 0.214219 -0.220119 0 0.292 -0.234206 0 0.332528 -0.238788 0 0.391901 -0.244293 0 0.451267 -0.248223 0 0.510624 -0.250569 0 0.56998 -0.251314 0 0.629344 -0.250471 0 0.688721 -0.248068 0 0.748105 -0.244133 0 0.807482 -0.238659 0 0.848 -0.234106 0 0.926493 -0.224864 0 0.985865 -0.214405 0 1.04523 -0.20214 0 1.10455 -0.188012 0 1.16382 -0.171818 0 1.223 -0.153311 0 1.28203 -0.132109 0 1.34075 -0.107518 0 1.39916 -0.0777743 0 1.42737 -0.0601026 0 1.45517 -0.0384424 0 1.46638 -0.0270126 0 1.47672 0.000797698 0 1.4652 0.0387347 0 1.45284 0.0564334 0 1.42482 0.0864367 0 1.39668 0.110254 0 1.33848 0.14992 0 1.28004 0.182149 0 1.22128 0.209461 0 1.16233 0.232985 0 1.10327 0.253363 0 1.04413 0.270974 0 0.984942 0.28611 0 0.925711 0.298961 0 0.848 0.310659 0 0.806924 0.316349 0 0.747713 0.323004 0 0.688489 0.327688 0 0.62923 0.330478 0 0.569933 0.331492 0 0.510595 0.330807 0 0.451189 0.328545 0 0.391707 0.324909 0 0.332168 0.320056 0 0.292 0.316202 0 0.213315 0.304183 0 0.15368 0.29637 0 0.094007 0.287768 0 0.0343011 0.278454 0 -0.0254377 0.268493 0 -0.0852148 0.257963 0 -0.145021 0.246958 0 -0.204836 0.235518 0 -0.264658 0.223644 0 -0.324499 0.211365 0 -0.384375 0.19873 0 -0.444295 0.185849 0 -0.504242 0.172816 0 -0.564208 0.159673 0 -0.6242 0.146469 0 -0.684216 0.133279 0 -0.744247 0.120141 0 -0.804298 0.107089 0 -0.864378 0.0941879 0 -0.924477 0.081503 0 -0.984571 0.0690685 0 -1.04465 0.0568336 0 -1.10475 0.0447914 0 -1.16486 0.0330033 0 -1.22933 0.0444551 0 -1.28936 0.0332017 0 0.848 -0.157598 0 0.848 -0.0598017 0 0.848 0.0379945 0 0.848 0.135791 0 0.848 0.233587 0 0.292 0.239052 0 0.292 0.14014 0 0.292 0.0412285 0 0.292 -0.057683 0 0.292 -0.156594 0 -1.43827 0.00836459 0 -1.29016 0.0226478 0 -1.23005 0.0248005 0 -1.16998 0.0247439 0 -1.10993 0.0233877 0 -1.04988 0.0204302 0 -0.989827 0.0159535 0 -0.929779 0.0099957 0 -0.869732 0.00256993 0 -0.809688 -0.00625944 0 -0.749649 -0.016379 0 -0.689614 -0.0276497 0 -0.62958 -0.0400176 0 -0.569549 -0.0534355 0 -0.509522 -0.0677989 0 -0.449501 -0.0829633 0 -0.389485 -0.0987475 0 -0.329475 -0.114959 0 -0.269472 -0.131395 0 -0.209475 -0.147831 0 -0.149484 -0.164054 0 -0.0894983 -0.179894 0 -0.0295203 -0.195144 0 0.0304487 -0.209528 0 0.0904085 -0.222756 0 0.150362 -0.234552 0 0.210313 -0.244812 0 0.272 -0.239631 0 0.331685 -0.246744 0 0.391267 -0.252268 0 0.450844 -0.256212 0 0.510416 -0.258566 0 0.569987 -0.259314 0 0.629563 -0.258468 0 0.689147 -0.256057 0 0.748737 -0.252108 0 0.808321 -0.246615 0 0.868 -0.239519 0 0.929681 -0.244609 0 0.989624 -0.234049 0 1.04957 -0.221664 0 1.1095 -0.207389 0 1.16944 -0.191012 0 1.22936 -0.17227 0 1.28928 -0.15075 0 1.34916 -0.125664 0 1.40901 -0.0951758 0 1.43885 -0.0764802 0 1.46865 -0.0532166 0 1.48331 -0.0376693 0 1.49788 7.2518e-05 0 1.4832 0.0474532 0 1.46844 0.0689449 0 1.43862 0.100914 0 1.40879 0.12617 0 1.34895 0.166957 0 1.28909 0.199984 0 1.22921 0.227824 0 1.1693 0.251731 0 1.10939 0.272405 0 1.04947 0.29025 0 0.98954 0.305575 0 0.92961 0.318577 0 0.868 0.315498 0 0.807949 0.324283 0 0.748476 0.330968 0 0.688993 0.335672 0 0.629487 0.338474 0 0.569955 0.339492 0 0.510397 0.338805 0 0.450793 0.336536 0 0.391138 0.332889 0 0.331445 0.328023 0 0.272 0.322086 0 0.210246 0.328994 0 0.150273 0.321137 0 0.0902968 0.312491 0 0.0303186 0.303135 0 -0.0296621 0.293134 0 -0.0896455 0.282568 0 -0.149631 0.271529 0 -0.209617 0.260056 0 -0.269604 0.24815 0 -0.329593 0.235841 0 -0.389583 0.223182 0 -0.449577 0.210284 0 -0.509573 0.197241 0 -0.569571 0.184091 0 -0.62957 0.170886 0 -0.689572 0.157698 0 -0.749574 0.144567 0 -0.809578 0.131525 0 -0.869584 0.11864 0 -0.929591 0.105974 0 -0.989598 0.0935579 0 -1.0496 0.0813386 0 -1.10961 0.0693142 0 -1.16962 0.0575456 0 -1.22955 0.0456341 0 -1.28957 0.0343825 0 0.868 -0.157598 0 0.868 -0.0598017 0 0.868 0.0379945 0 0.868 0.135791 0 0.868 0.233587 0 0.272 0.239052 0 0.272 0.14014 0 0.272 0.0412285 0 0.272 -0.057683 0 0.272 -0.156594 0 -1.5 0 0 -1.29 0.020253 0 -1.23 0.022401 0 -1.17 0.022744 0 -1.11 0.021389 0 -1.05 0.018434 0 -0.99 0.013961 0 -0.93 0.008008 0 -0.87 0.000588 0 -0.81 -0.008235 0 -0.75 -0.018348 0 -0.69 -0.029612 0 -0.63 -0.041973 0 -0.57 -0.055384 0 -0.51 -0.069741 0 -0.45 -0.0849 0 -0.39 -0.10068 0 -0.33 -0.116889 0 -0.27 -0.133324 0 -0.21 -0.149761 0 -0.15 -0.165986 0 -0.09 -0.18183 0 -0.03 -0.197086 0 0.03 -0.211477 0 0.09 -0.224714 0 0.15 -0.236519 0 0.21 -0.246787 0 0.27 -0.255506 0 0.33 -0.262655 0 0.39 -0.268218 0 0.45 -0.27219 0 0.51 -0.274561 0 0.57 -0.275314 0 0.63 -0.274462 0 0.69 -0.272034 0 0.75 -0.268058 0 0.81 -0.262527 0 0.87 -0.255394 0 0.93 -0.246583 0 0.99 -0.236013 0 1.05 -0.223616 0 1.11 -0.209327 0 1.17 -0.192931 0 1.23 -0.174166 0 1.29 -0.152614 0 1.35 -0.127479 0 1.41 -0.096916 0 1.44 -0.078118 0 1.47 -0.054694 0 1.485 -0.038735 0 1.5 0 0 1.485 0.048325 0 1.47 0.070196 0 1.44 0.102362 0 1.41 0.127762 0 1.35 0.168661 0 1.29 0.201767 0 1.23 0.22966 0 1.17 0.253606 0 1.11 0.274309 0 1.05 0.292178 0 0.99 0.307521 0 0.93 0.320539 0 0.87 0.331383 0 0.81 0.340151 0 0.75 0.346895 0 0.69 0.35164 0 0.63 0.354466 0 0.57 0.355492 0 0.51 0.3548 0 0.45 0.352516 0 0.39 0.348848 0 0.33 0.343958 0 0.27 0.337963 0 0.21 0.330979 0 0.15 0.323118 0 0.09 0.314469 0 0.03 0.305109 0 -0.03 0.295105 0 -0.09 0.284536 0 -0.15 0.273495 0 -0.21 0.262019 0 -0.27 0.25011 0 -0.33 0.237799 0 -0.39 0.225138 0 -0.45 0.212239 0 -0.51 0.199195 0 -0.57 0.186044 0 -0.63 0.172839 0 -0.69 0.159652 0 -0.75 0.146521 0 -0.81 0.13348 0 -0.87 0.120596 0 -0.93 0.107932 0 -0.99 0.095517 0 -1.05 0.083299 0 -1.11 0.071276 0 -1.17 0.059509 0 -1.23 0.047992 0 -1.29 0.036744 0 0.87 -0.157598 0 0.87 -0.0598017 0 0.87 0.0379945 0 0.87 0.135791 0 0.87 0.233587 0 0.27 0.239052 0 0.27 0.14014 0 0.27 0.0412285 0 0.27 -0.057683 0 0.27 -0.156594 0 -1.34567 0.0209115 0 -1.2904 0.02624 0 -1.23012 0.0283997 0 -1.16976 0.051743 0 -1.10896 0.0503703 0 -1.04821 0.0473786 0 -0.98749 0.0428522 0 -0.926789 0.0368296 0 -0.866111 0.029326 0 -0.80548 0.0204106 0 -0.744914 0.0102026 0 -0.684399 -0.0011581 0 -0.623911 -0.0136194 0 -0.563463 -0.0271305 0 -0.503074 -0.0415803 0 -0.44276 -0.0568183 0 -0.38253 -0.0726585 0 -0.322388 -0.0889059 0 -0.262338 -0.105354 0 -0.202384 -0.121779 0 -0.142513 -0.137969 0 -0.0827247 -0.153757 0 -0.0230448 -0.168932 0 0.036506 -0.183216 0 0.0959234 -0.196325 0 0.155245 -0.207997 0 0.214531 -0.218143 0 0.294 -0.218331 0 0.334213 -0.222877 0 0.393168 -0.228344 0 0.452111 -0.232246 0 0.511041 -0.234575 0 0.569967 -0.235314 0 0.628907 -0.234477 0 0.687869 -0.232091 0 0.746841 -0.228183 0 0.805803 -0.222748 0 0.846 -0.218231 0 0.926174 -0.22289 0 0.985489 -0.212441 0 1.04479 -0.200188 0 1.10406 -0.186075 0 1.16325 -0.169899 0 1.22236 -0.151415 0 1.2813 -0.130245 0 1.33991 -0.105703 0 1.39817 -0.0760341 0 1.42622 -0.0584648 0 1.45382 -0.036965 0 1.46469 -0.0259469 0 1.4746 0.000870216 0 1.4634 0.0378628 0 1.45128 0.0551823 0 1.42344 0.084989 0 1.39547 0.108662 0 1.33743 0.148216 0 1.27914 0.180366 0 1.22049 0.207625 0 1.16164 0.231111 0 1.10266 0.251459 0 1.0436 0.269047 0 0.984482 0.284164 0 0.925321 0.297 0 0.846 0.294774 0 0.804873 0.300481 0 0.746189 0.307077 0 0.687482 0.311719 0 0.628717 0.314487 0 0.569889 0.315492 0 0.510992 0.314812 0 0.451981 0.312565 0 0.392845 0.308949 0 0.333613 0.304122 0 0.294 0.300325 0 0.21356 0.302198 0 0.153953 0.294389 0 0.0943038 0.28579 0 0.0346197 0.276479 0 -0.0250998 0.266522 0 -0.0848603 0.255995 0 -0.144652 0.244992 0 -0.204453 0.233554 0 -0.264263 0.221683 0 -0.324092 0.209407 0 -0.383959 0.196774 0 -0.443872 0.183894 0 -0.503815 0.170862 0 -0.563779 0.157719 0 -0.623771 0.144516 0 -0.683787 0.131325 0 -0.74382 0.118187 0 -0.803876 0.105134 0 -0.863961 0.0922317 0 -0.924067 0.0795453 0 -0.984169 0.0671093 0 -1.04426 0.0548732 0 -1.10436 0.0428296 0 -1.16448 0.03104 0 -1.22888 0.0420971 0 -1.28893 0.0308402 0 0.846 -0.157598 0 0.846 -0.0598017 0 0.846 0.0379945 0 0.846 0.135791 0 0.846 0.233587 0 0.294 0.239052 0 0.294 0.14014 0 0.294 0.0412285 0 0.294 -0.057683 0 0.294 -0.156594 0 
</DataArray>
</Points>
<Cells>
<DataArray Name="connectivity" format="ascii" type="Int64">