<?xml version="1.0"?>
<VTKFile byte_order="LittleEndian" type="UnstructuredGrid" version="0.1">
<UnstructuredGrid>
<Piece NumberOfCells="336" NumberOfPoints="440">
<PointData>
<DataArray Name="Warping_X" format="ascii" type="Float64">
0 0 0 0 0 0 0 0 0 0 0 0 0 0 0 0 0 0 0 0 0 0 0 0 0 0 0 0 0 0 0 0 0 0 0 0 0 0 0 0 0 0 0 0 0 0 0 0 0 0 0 0 0 0 0 0 0 0 0 0 0 0 0 0 0 0 0 0 0 0 0 0 0 0 0 0 0 0 0 0 0 0 0 0 0 0 0 0 0 0 0 0 0 0 0 0 0 0 0 0 0 0 0 0 0 0 0 0 0 0 0 0 0 0 0 0 0 0 0 0 0 0 0 0 0 0 0 0 0 0 0 0 0 0 0 0 0 0 0 0 0 0 0 0 0 0 0 0 0 0 0 0 0 0 0 0 0 0 0 0 0 0 0 0 0 0 0 0 0 0 0 0 0 0 0 0 0 0 0 0 0 0 0 0 0 0 0 0 0 0 0 0 0 0 0 0 0 0 0 0 0 0 0 0 0 0 0 0 0 0 0 0 0 0 0 0 0 0 0 0 -0 0 0 0 0 0 0 0 0 0 0 0 0 0 0 0 0 0 0 0 0 0 0 0 0 0 0 0 0 0 0 0 0 0 0 0 0 0 0 0 0 0 0 0 0 0 0 0 0 0 0 0 0 0 0 0 0 0 0 0 0 0 0 0 0 0 0 0 0 0 0 0 0 0 0 0 0 0 0 0 0 0 0 0 0 0 0 0 0 0 0 0 0 0 0 0 0 0 0 0 0 0 0 0 0 0 0 0 0 0 -0 0 0 0 0 0 0 0 0 0 0 0 0 0 0 0 0 0 0 0 0 0 0 0 0 0 0 0 0 0 0 0 0 0 0 0 0 0 0 0 0 0 0 0 0 0 0 0 0 0 0 -0 0 0 0 0 0 0 0 0 0 0 0 0 0 0 0 0 0 0 0 0 0 0 0 0 0 0 0 0 0 0 0 0 0 0 0 0 0 0 0 0 0 0 0 0 0 0 0 0 0 0 0 0 0 0 0 0 0 0 
</DataArray>
<DataArray Name="Warping_Y" format="ascii" type="Float64">
0 0 0 0 0 0 0 0 0 0 0 0 0 0 0 0 0 0 0 0 0 0 0 0 0 0 0 0 0 0 0 0 0 0 0 0 0 0 0 0 0 0 0 0 0 0 0 0 0 0 0 0 0 0 0 0 0 0 0 0 0 0 0 0 0 0 0 0 0 0 0 0 0 0 0 0 0 0 0 0 0 0 0 0 0 0 0 0 0 0 0 0 0 0 0 0 0 0 0 0 0 0 0 0 0 0 0 0 0 0 0 0 0 0 0 0 0 0 0 0 0 0 0 0 0 0 0 0 0 0 0 0 0 0 0 0 0 0 0 0 0 0 0 0 0 0 0 0 0 0 0 0 0 0 0 0 0 0 0 0 0 0 0 0 0 0 0 0 0 0 0 0 0 0 0 0 0 0 0 0 0 0 0 0 0 0 0 0 0 0 0 0 0 0 0 0 0 0 0 0 0 0 0 0 0 0 0 0 0 0 0 0 0 0 0 0 0 0 0 0 -0 0 0 0 0 -0 0 0 0 0 0 0 0 0 0 0 0 0 0 0 0 0 0 0 0 0 0 0 0 0 0 0 0 0 0 0 0 0 0 0 0 0 0 0 0 0 0 0 0 0 0 0 0 0 0 0 0 0 0 0 0 0 0 0 0 0 0 0 0 0 0 0 0 0 0 0 0 0 0 0 0 0 0 0 0 0 0 0 0 0 0 0 0 0 0 0 0 0 0 0 0 0 0 0 0 0 0 0 0 0 -0 0 0 0 0 0 0 0 0 0 0 0 0 0 0 0 0 0 0 0 0 0 0 0 0 0 0 -0 0 0 0 0 0 0 0 0 0 0 0 0 0 0 0 0 0 0 0 0 0 0 0 0 0 0 0 0 0 0 0 0 0 0 0 0 0 0 0 0 0 0 0 0 0 0 0 0 0 0 0 0 0 0 0 0 0 0 0 0 0 0 0 0 0 0 0 0 0 0 0 0 0 0 0 0 0 0 0 0 0 0 
</DataArray>
<DataArray Name="Warping_Z" format="ascii" type="Float64">
0 0 0 0 0 0 0 0 0 0 0 0 0 0 0 0 0 0 0 0 0 0 0 0 0 0 0 0 0 0 0 0 0 0 0 0 0 0 0 0 0 0 0 0 0 0 0 0 0 0 0 0 0 0 0 0 0 0 0 0 0 0 0 0 0 0 0 0 0 0 0 0 0 0 0 0 0 0 0 0 0 0 0 0 0 0 0 0 0 0 0 0 0 0 0 0 0 0 0 0 0 0 0 0 0 0 0 0 0 0 0 0 0 0 0 0 0 0 0 0 0 0 0 0 0 0 0 0 0 0 0 0 0 0 0 0 0 0 0 0 0 0 0 0 0 0 0 0 0 0 0 0 0 0 0 0 0 0 0 0 0 0 0 0 0 0 0 0 0 0 0 0 0 0 0 0 0 0 0 0 0 0 0 0 0 0 0 0 0 0 0 0 0 0 0 0 0 0 0 0 0 0 0 0 0 0 0 0 0 0 0 0 0 0 0 0 0 0 0 0 0 0 0 0 0 0 0 0 0 0 0 0 0 0 0 0 0 0 0 0 0 0 0 0 0 0 0 0 0 0 0 0 0 0 0 0 0 0 0 0 0 0 0 0 0 0 0 0 0 0 0 0 0 0 0 0 0 0 0 0 0 0 0 0 0 0 0 0 0 0 0 0 0 0 0 0 0 0 0 0 0 0 0 0 0 0 0 0 0 0 0 0 0 0 0 0 0 0 0 0 0 0 0 0 0 0 0 0 0 0 0 0 0 0 0 0 0 0 0 0 0 0 0 0 0 0 0 0 0 0 0 0 0 0 0 0 0 0 0 0 0 0 0 0 0 0 0 0 0 0 0 0 0 0 0 0 0 0 0 0 0 0 0 0 0 0 0 0 0 0 0 0 0 0 0 0 0 0 0 0 0 0 0 0 0 0 0 0 0 0 0 0 0 0 0 0 0 0 0 0 0 0 0 0 0 0 0 0 0 0 0 0 0 0 0 0 0 0 0 0 
</DataArray>
</PointData>
<CellData>
<DataArray Name="MaterialId" format="ascii" type="Float64">
4 3 3 3 3 3 3 3 3 3 3 3 3 3 3 3 3 3 3 3 3 3 3 3 3 3 3 3 1 1 1 1 1 1 1 1 1 1 3 3 3 3 3 1 3 3 3 3 3 1 3 3 3 3 3 1 3 3 3 3 3 1 3 3 1 1 1 1 4 1 3 1 1 1 3 3 3 3 3 1 3 3 3 3 3 4 3 3 3 3 3 4 3 3 3 3 3 4 4 3 3 2 2 4 2 2 2 2 2 4 2 2 2 4 4 4 4 4 4 4 3 1 4 4 4 2 4 2 1 4 4 4 1 4 3 4 4 4 4 4 3 1 4 4 2 1 1 3 3 4 3 3 3 3 1 3 3 1 3 4 4 4 4 4 3 3 3 3 4 2 1 1 4 3 1 3 3 3 1 3 3 1 3 3 1 1 4 3 1 1 1 3 3 4 4 4 1 4 1 4 3 4 3 4 4 2 3 2 4 3 4 4 2 3 4 3 4 2 3 2 3 3 2 4 3 3 2 4 3 3 3 3 3 4 3 4 3 3 2 3 4 3 4 1 3 2 4 3 1 3 4 3 4 4 1 3 4 4 4 1 1 4 4 4 2 3 4 3 3 3 4 1 4 4 4 4 3 3 4 3 1 3 4 3 3 3 3 4 4 3 1 4 3 4 3 3 3 3 3 3 3 4 3 3 3 4 1 3 3 1 3 4 3 3 3 4 4 4 1 1 1 1 1 4 1 1 3 3 3 4 3 3 3 3 3 3 
</DataArray>
<DataArray Name="FiberAngle" format="ascii" type="Float64">
0 0 0 0 0 0 0 0 0 0 0 0 0 0 0 0 0 0 0 0 0 0 0 0 0 0 0 0 0 0 0 0 0 0 0 0 0 0 0 0 0 0 0 0 0 0 0 0 0 0 0 0 0 0 0 0 0 0 0 0 0 0 0 0 0 0 0 0 0 0 0 0 0 0 0 0 0 0 0 0 0 0 0 0 0 0 0 0 0 0 0 0 0 0 0 0 0 0 0 0 0 0 0 0 0 0 0 0 0 0 0 0 0 0 0 0 0 0 0 0 0 0 0 0 0 0 0 0 0 0 0 0 0 0 0 0 0 0 0 0 0 0 0 0 0 0 0 0 0 0 0 0 0 0 0 0 0 0 0 0 0 0 0 0 0 0 0 0 0 0 0 0 0 0 0 0 0 0 0 0 0 0 0 0 0 0 0 0 0 0 0 0 0 0 0 0 0 0 0 0 0 0 0 0 0 0 0 0 0 0 0 0 0 0 0 0 0 0 0 0 0 0 0 0 0 0 0 0 0 0 0 0 0 0 0 0 0 0 0 0 0 0 0 0 0 0 0 0 0 0 0 0 0 0 0 0 0 0 0 0 0 0 0 0 0 0 0 0 0 0 0 0 0 0 0 0 0 0 0 0 0 0 0 0 0 0 0 0 0 0 0 0 0 0 0 0 0 0 0 0 0 0 0 0 0 0 0 0 0 0 0 0 0 0 0 0 0 0 0 0 0 0 0 0 0 0 0 0 0 0 0 0 0 0 0 0 
</DataArray>
<DataArray Name="Strain_11" format="ascii" type="Float64">
0 0 0 0 0 0 0 0 0 0 0 0 0 0 0 0 0 0 0 0 0 0 0 0 0 0 0 0 0 0 0 0 0 0 0 0 0 0 0 0 0 0 0 0 0 0 0 0 0 0 0 0 0 0 0 0 0 0 0 0 0 0 0 0 0 0 0 0 0 0 0 0 0 0 0 0 0 0 0 0 0 0 0 0 0 0 0 0 0 0 0 0 0 0 0 0 0 0 0 0 0 0 0 0 0 0 0 0 0 0 0 0 0 0 0 0 0 0 0 0 0 0 0 0 0 0 0 0 0 0 0 0 0 0 0 0 0 0 0 0 0 0 0 0 0 0 0 0 0 0 0 0 0 0 0 0 0 0 0 0 0 0 0 0 0 0 0 0 0 0 0 0 0 0 0 0 0 0 0 0 0 0 0 0 0 0 0 0 0 0 0 0 0 0 0 0 0 0 0 0 0 0 0 0 0 0 0 0 0 0 0 0 0 0 0 0 0 0 0 0 0 0 0 0 0 0 0 0 0 0 0 0 0 0 0 0 0 0 0 0 0 0 0 0 0 0 0 0 0 0 0 0 0 0 0 0 0 0 0 0 0 0 0 0 0 0 0 0 0 0 0 0 0 0 0 0 0 0 0 0 0 0 0 0 0 0 0 0 0 0 0 0 0 0 0 0 0 0 0 0 0 0 0 0 0 0 0 0 0 0 0 0 0 0 0 0 0 0 0 0 0 0 0 0 0 0 0 0 0 0 0 0 0 0 0 0 
</DataArray>
<DataArray Name="Strain_22" format="ascii" type="Float64">
0 0 0 0 0 0 0 0 0 0 0 0 0 0 0 0 0 0 0 0 0 0 0 0 0 0 0 0 0 0 0 0 0 0 0 0 0 0 0 0 0 0 0 0 0 0 0 0 0 0 0 0 0 0 0 0 0 0 0 0 0 0 0 0 0 0 0 0 0 0 0 0 0 0 0 0 0 0 0 0 0 0 0 0 0 0 0 0 0 0 0 0 0 0 0 0 0 0 0 0 0 0 0 0 0 0 0 0 0 0 0 0 0 0 0 0 0 0 0 0 0 0 0 0 0 0 0 0 0 0 0 0 0 0 0 0 0 0 0 0 0 0 0 0 0 0 0 0 0 0 0 0 0 0 0 0 0 0 0 0 0 0 0 0 0 0 0 0 0 0 0 0 0 0 0 0 0 0 0 0 0 0 0 0 0 0 0 0 0 0 0 0 0 0 0 0 0 0 0 0 0 0 0 0 0 0 0 0 0 0 0 0 0 0 0 0 0 0 0 0 0 0 0 0 0 0 0 0 0 0 0 0 0 0 0 0 0 0 0 0 0 0 0 0 0 0 0 0 0 0 0 0 0 0 0 0 0 0 0 0 0 0 0 0 0 0 0 0 0 0 0 0 0 0 0 0 0 0 0 0 0 0 0 0 0 0 0 0 0 0 0 0 0 0 0 0 0 0 0 0 0 0 0 0 0 0 0 0 0 0 0 0 0 0 0 0 0 0 0 0 0 0 0 0 0 0 0 0 0 0 0 0 0 0 0 0 
</DataArray>
<DataArray Name="Strain_12" format="ascii" type="Float64">
0 0 0 0 0 0 0 0 0 0 0 0 0 0 0 0 0 0 0 0 0 0 0 0 0 0 0 0 0 0 0 0 0 0 0 0 0 0 0 0 0 0 0 0 0 0 0 0 0 0 0 0 0 0 0 0 0 0 0 0 0 0 0 0 0 0 0 0 0 0 0 0 0 0 0 0 0 0 0 0 0 0 0 0 0 0 0 0 0 0 0 0 0 0 0 0 0 0 0 0 0 0 0 0 0 0 0 0 0 0 0 0 0 0 0 0 0 0 0 0 0 0 0 0 0 0 0 0 0 0 0 0 0 0 0 0 0 0 0 0 0 0 0 0 0 0 0 0 0 0 0 0 0 0 0 0 0 0 0 0 0 0 0 0 0 0 0 0 0 0 0 0 0 0 0 0 0 0 0 0 0 0 0 0 0 0 0 0 0 0 0 0 0 0 0 0 0 0 0 0 0 0 0 0 0 0 0 0 0 0 0 0 0 0 0 0 0 0 0 0 0 0 0 0 0 0 0 0 0 0 0 0 0 0 0 0 0 0 0 0 0 0 0 0 0 0 0 0 0 0 0 0 0 0 0 0 0 0 0 0 0 0 0 0 0 0 0 0 0 0 0 0 0 0 0 0 0 0 0 0 0 0 0 0 0 0 0 0 0 0 0 0 0 0 0 0 0 0 0 0 0 0 0 0 0 0 0 0 0 0 0 0 0 0 0 0 0 0 0 0 0 0 0 0 0 0 0 0 0 0 0 0 0 0 0 0 
</DataArray>
<DataArray Name="Strain_13" format="ascii" type="Float64">
0.203933 -0.0128163 -0.0225256 -0.0236723 -0.0230661 -0.0209102 -0.0171947 -0.0119795 -0.0052904 0.00283414 0.0123054 0.0229972 0.0348131 0.0477025 0.0615898 0.0763508 0.0918227 0.107819 0.124142 0.140578 0.156908 0.172941 0.188489 0.203309 0.217119 0.229635 0.240667 0.246684 0.251134 0.257471 0.262222 0.245524 0.266939 0.266889 0.265255 0.262064 0.257327 0.250249 0.246526 0.240313 0.228835 0.215499 0.200165 0.253393 0.16245 0.139127 0.111309 0.0866725 0.0656272 0.254941 0.019083 -0.0239627 -0.0587298 -0.0856043 -0.114302 0.254892 -0.184342 -0.214809 -0.240705 -0.263013 -0.282286 0.253266 -0.313053 -0.321499 -0.327829 -0.335574 -0.341294 0.250091 0.216389 -0.347147 0.0484937 -0.342697 -0.338429 0.245379 -0.330006 -0.326057 -0.317804 -0.308801 -0.299121 0.239725 -0.278032 -0.266775 -0.255084 -0.242975 -0.23049 0.235774 -0.20474 -0.191643 -0.178465 -0.165269 -0.15211 0.229482 -0.12606 -0.113286 -0.100745 -0.0884281 -0.076307 0.218064 0.227362 -0.0411881 0.0320918 0.202527 0.1087 0.204801 -0.0868926 -0.184689 -0.278514 0.0109036 -0.189596 0.189558 0.00822725 0.107139 0.202082 0.172103 0.196756 0.15211 -0.285804 0.12901 0.234692 -0.00100755 0.0128229 -0.321093 0.101533 0.190178 0.0773833 -0.0906842 0.0570605 -0.284538 -0.333008 0.0390852 -0.0906842 0.0159529 0.239842 0.00972889 -0.0195664 -0.11286 -0.0217645 -0.0528915 -0.0781823 -0.2305 -0.139023 -0.311728 -0.105944 -0.264755 0.0109036 0.265382 -0.323151 -0.0470533 -0.251477 -0.204854 -0.2286 -0.216525 0.021351 -0.086867 -0.316697 -0.300348 -0.204069 -0.321683 -0.0707603 -0.288227 0.175401 -0.302306 -0.0306564 -0.310924 -0.0261213 -0.0619712 -0.152094 -0.0394183 -0.241842 -0.184689 -0.323651 -0.318742 0.0484589 -0.0975855 -0.329333 -0.0389715 -0.0478757 -0.112638 -0.334984 -0.0388459 0.0817478 -0.335149 0.182595 -0.191312 -0.333673 -0.314509 0.0632599 -0.129263 -0.322987 -0.33072 -0.326469 -0.0035394 -0.0379161 -0.317866 0.00822725 -0.21728 -0.333078 -0.312671 -0.310176 0.0787642 -0.165163 0.159886 -0.024375 0.111118 -0.304441 0.191883 -0.165268 0.1087 -0.252621 -0.0376485 -0.27554 -0.204511 -0.0868926 -0.305727 0.0947834 -0.1949 -0.253515 -0.268152 0.14683 -0.273658 -0.0644112 -0.0376489 -0.189596 0.0109036 -0.298881 -0.138897 -0.0906842 0.127555 -0.0996606 -0.299285 0.190748 -0.220295 0.194104 -0.191548 0.203143 -0.178455 0.214056 -0.125733 0.191431 0.2227 -0.22975 -0.049832 -0.152083 0.228551 0.177047 0.00822725 -0.138921 -0.291079 0.233576 -0.24223 -0.125831 -0.291559 0.143874 -0.034393 -0.346981 -0.0526702 -0.0254127 -0.100076 -0.0186879 -0.317372 -0.345664 -0.184689 -0.0105224 -0.16528 0.107139 -0.178355 -0.0751996 -0.282123 -0.240256 -0.261211 -0.0630695 0.238119 -0.0511637 0.0215906 -0.0451595 0.0345267 -0.0198728 -0.0743065 0.107139 0.0460787 -0.305566 0.0980949 -0.138325 -0.0221239 -0.272487 0.21865 -0.277574 -0.0875259 0.197205 -0.0208859 0.251014 -0.295462 -0.050057 0.1087 -0.0441182 -0.147388 -0.0320854 -0.0238789 -0.0143205 -0.288836 0.00836822 -0.271748 0.035328 0.050169 0.0657057 -0.0868926 -0.345063 0.114531 0.13084 -0.321592 0.162314 -0.174753 -0.262243 -0.0168511 -0.0243234 -0.0313219 -0.0365616 -0.273333 0.238277 0.241403 0.242943 0.242894 0.241277 -0.279098 0.233431 0.228436 0.225023 -0.217711 0.207294 -0.189596 0.178951 0.16161 0.14177 0.118894 0.0917574 0.068094 
</DataArray>
<DataArray Name="Strain_23" format="ascii" type="Float64">
0.0631074 -1.37961 -1.26005 -1.20001 -1.13998 -1.07995 -1.01993 -0.959901 -0.899878 -0.839855 -0.779834 -0.719816 -0.659798 -0.599782 -0.539768 -0.479756 -0.419746 -0.35974 -0.299737 -0.239737 -0.17974 -0.119745 -0.0597546 0.000232108 0.0602143 0.120193 0.180169 0.240578 0.300921 0.360738 0.420528 0.361845 0.540101 0.599887 0.659678 0.719471 0.779264 0.42132 0.89942 0.959826 1.0198 1.07977 1.13974 0.480788 1.25966 1.31961 1.37954 1.42447 1.45438 0.540252 1.49155 1.49152 1.47666 1.45426 1.42435 0.599719 1.31951 1.25958 1.19963 1.13967 1.07971 0.659194 0.959788 0.899403 0.838987 0.779106 0.719367 0.718678 0.122792 0.540088 1.44065 0.420483 0.360646 0.778161 0.240561 0.18013 0.120142 0.0601539 0.000164157 0.832951 -0.119819 -0.179812 -0.239805 -0.299799 -0.359794 0.893044 -0.479788 -0.539786 -0.599785 -0.659785 -0.719786 0.957916 -0.83979 -0.899794 -0.959797 -1.0198 -1.0798 1.01757 0.182444 -1.25978 1.46002 0.869 0.869 1.07721 0.869 0.869 0.869 0.869 0.271 1.13683 0.271 0.271 0.271 1.1964 0.282 1.25592 0.00238001 1.3153 0.247133 -0.777599 1.4706 0.65848 1.37452 0.00336533 1.4186 0.271 1.44751 0.271 0.300861 1.46838 0.282 1.48107 0.307053 -0.717328 1.46998 -0.836959 1.48075 1.46742 1.44618 1.19553 -0.779788 0.776425 1.41723 -0.117378 0.847 0.480315 0.540352 1.45818 -0.114937 1.25491 -0.234552 -0.294378 -0.593904 -0.894221 0.832718 0.886258 -0.354231 0.481189 1.43809 1.01702 -0.0564423 0.957451 -1.01892 0.89283 -1.26021 -1.01441 -0.593989 -1.25945 -0.237179 0.847 0.777766 0.421931 -0.536634 1.4101 0.718418 -1.19993 -1.07863 -0.77406 0.599651 -0.957238 -0.352719 0.54022 1.1997 -0.414125 0.480743 0.362583 -0.476458 1.36701 0.599442 0.421207 0.361615 -0.714841 -1.13461 0.24689 0.282 -0.357013 0.65905 0.181878 0.312945 -0.416323 1.30877 -0.116309 -1.33284 -0.296181 0.122064 0.847 -0.534011 0.847 1.13607 -1.25912 -0.05749 -0.416958 0.847 0.253219 -0.356229 1.25024 -0.177276 0.847 -0.112873 0.293 -1.13981 -1.19689 0.293 0.858 1.01975 -0.653994 0.293 -0.23618 -0.834128 0.183627 0.0660004 1.19143 1.07466 -0.476922 0.125392 -0.536898 0.18472 -0.714018 0.293 0.253688 -0.297089 -1.07451 -0.65689 0.313185 0.00649855 0.293 -0.716902 0.123986 0.362952 1.13247 -0.776924 0.955114 -0.176224 -1.07929 0.599861 -1.19979 -0.95857 -0.897007 -0.898225 0.717468 0.480297 0.858 -0.837898 -0.596887 0.293 -0.474056 -1.01711 0.064308 -0.17474 1.07342 -1.07715 0.717884 -1.13721 -0.657077 -1.19834 -0.596843 -1.37946 -0.954321 0.282 1.47674 0.826449 -0.292626 1.37322 -1.35615 0.00459586 0.956005 1.01429 -0.957059 0.858 -1.33343 0.83908 0.0622309 -1.13938 0.858 -1.01792 1.37944 -0.896572 -0.83594 -0.775363 -0.0598269 -0.654356 1.07656 -0.5335 -0.473161 -0.412899 0.858 0.65962 -0.232624 -0.172709 0.306903 -0.0531301 1.31414 -0.0551531 -1.35652 -1.26013 -1.19997 -1.13968 0.858 0.422112 0.481261 0.540403 0.59955 0.65871 0.282 0.777058 0.826821 0.886667 -0.41979 1.01534 0.282 1.13392 1.19311 1.25217 1.311 1.3695 1.41273 
</DataArray>
<DataArray Name="Strain_33" format="ascii" type="Float64">
0 0 0 0 0 0 0 0 0 0 0 0 0 0 0 0 0 0 0 0 0 0 0 0 0 0 0 0 0 0 0 0 0 0 0 0 0 0 0 0 0 0 0 0 0 0 0 0 0 0 0 0 0 0 0 0 0 0 0 0 0 0 0 0 0 0 0 0 0 0 0 0 0 0 0 0 0 0 0 0 0 0 0 0 0 0 0 0 0 0 0 0 0 0 0 0 0 0 0 0 0 0 0 0 0 0 0 0 0 0 0 0 0 0 0 0 0 0 0 0 0 0 0 0 0 0 0 0 0 0 0 0 0 0 0 0 0 0 0 0 0 0 0 0 0 0 0 0 0 0 0 0 0 0 0 0 0 0 0 0 0 0 0 0 0 0 0 0 0 0 0 0 0 0 0 0 0 0 0 0 0 0 0 0 0 0 0 0 0 0 0 0 0 0 0 0 0 0 0 0 0 0 0 0 0 0 0 0 0 0 0 0 0 0 0 0 0 0 0 0 0 0 0 0 0 0 0 0 0 0 0 0 0 0 0 0 0 0 0 0 0 0 0 0 0 0 0 0 0 0 0 0 0 0 0 0 0 0 0 0 0 0 0 0 0 0 0 0 0 0 0 0 0 0 0 0 0 0 0 0 0 0 0 0 0 0 0 0 0 0 0 0 0 0 0 0 0 0 0 0 0 0 0 0 0 0 0 0 0 0 0 0 0 0 0 0 0 0 0 0 0 0 0 0 0 0 0 0 0 0 0 0 0 0 0 0 
</DataArray>
<DataArray Name="Stress_11" format="ascii" type="Float64">
0 0 0 0 0 0 0 0 0 0 0 0 0 0 0 0 0 0 0 0 0 0 0 0 0 0 0 0 0 0 0 0 0 0 0 0 0 0 0 0 0 0 0 0 0 0 0 0 0 0 0 0 0 0 0 0 0 0 0 0 0 0 0 0 0 0 0 0 0 0 0 0 0 0 0 0 0 0 0 0 0 0 0 0 0 0 0 0 0 0 0 0 0 0 0 0 0 0 0 0 0 0 0 0 0 0 0 0 0 0 0 0 0 0 0 0 0 0 0 0 0 0 0 0 0 0 0 0 0 0 0 0 0 0 0 0 0 0 0 0 0 0 0 0 0 0 0 0 0 0 0 0 0 0 0 0 0 0 0 0 0 0 0 0 0 0 0 0 0 0 0 0 0 0 0 0 0 0 0 0 0 0 0 0 0 0 0 0 0 0 0 0 0 0 0 0 0 0 0 0 0 0 0 0 0 0 0 0 0 0 0 0 0 0 0 0 0 0 0 0 0 0 0 0 0 0 0 0 0 0 0 0 0 0 0 0 0 0 0 0 0 0 0 0 0 0 0 0 0 0 0 0 0 0 0 0 0 0 0 0 0 0 0 0 0 0 0 0 0 0 0 0 0 0 0 0 0 0 0 0 0 0 0 0 0 0 0 0 0 0 0 0 0 0 0 0 0 0 0 0 0 0 0 0 0 0 0 0 0 0 0 0 0 0 0 0 0 0 0 0 0 0 0 0 0 0 0 0 0 0 0 0 0 0 0 0 
</DataArray>
<DataArray Name="Stress_22" format="ascii" type="Float64">
0 0 0 0 0 0 0 0 0 0 0 0 0 0 0 0 0 0 0 0 0 0 0 0 0 0 0 0 0 0 0 0 0 0 0 0 0 0 0 0 0 0 0 0 0 0 0 0 0 0 0 0 0 0 0 0 0 0 0 0 0 0 0 0 0 0 0 0 0 0 0 0 0 0 0 0 0 0 0 0 0 0 0 0 0 0 0 0 0 0 0 0 0 0 0 0 0 0 0 0 0 0 0 0 0 0 0 0 0 0 0 0 0 0 0 0 0 0 0 0 0 0 0 0 0 0 0 0 0 0 0 0 0 0 0 0 0 0 0 0 0 0 0 0 0 0 0 0 0 0 0 0 0 0 0 0 0 0 0 0 0 0 0 0 0 0 0 0 0 0 0 0 0 0 0 0 0 0 0 0 0 0 0 0 0 0 0 0 0 0 0 0 0 0 0 0 0 0 0 0 0 0 0 0 0 0 0 0 0 0 0 0 0 0 0 0 0 0 0 0 0 0 0 0 0 0 0 0 0 0 0 0 0 0 0 0 0 0 0 0 0 0 0 0 0 0 0 0 0 0 0 0 0 0 0 0 0 0 0 0 0 0 0 0 0 0 0 0 0 0 0 0 0 0 0 0 0 0 0 0 0 0 0 0 0 0 0 0 0 0 0 0 0 0 0 0 0 0 0 0 0 0 0 0 0 0 0 0 0 0 0 0 0 0 0 0 0 0 0 0 0 0 0 0 0 0 0 0 0 0 0 0 0 0 0 0 
</DataArray>
<DataArray Name="Stress_12" format="ascii" type="Float64">
0 0 0 0 0 0 0 0 0 0 0 0 0 0 0 0 0 0 0 0 0 0 0 0 0 0 0 0 0 0 0 0 0 0 0 0 0 0 0 0 0 0 0 0 0 0 0 0 0 0 0 0 0 0 0 0 0 0 0 0 0 0 0 0 0 0 0 0 0 0 0 0 0 0 0 0 0 0 0 0 0 0 0 0 0 0 0 0 0 0 0 0 0 0 0 0 0 0 0 0 0 0 0 0 0 0 0 0 0 0 0 0 0 0 0 0 0 0 0 0 0 0 0 0 0 0 0 0 0 0 0 0 0 0 0 0 0 0 0 0 0 0 0 0 0 0 0 0 0 0 0 0 0 0 0 0 0 0 0 0 0 0 0 0 0 0 0 0 0 0 0 0 0 0 0 0 0 0 0 0 0 0 0 0 0 0 0 0 0 0 0 0 0 0 0 0 0 0 0 0 0 0 0 0 0 0 0 0 0 0 0 0 0 0 0 0 0 0 0 0 0 0 0 0 0 0 0 0 0 0 0 0 0 0 0 0 0 0 0 0 0 0 0 0 0 0 0 0 0 0 0 0 0 0 0 0 0 0 0 0 0 0 0 0 0 0 0 0 0 0 0 0 0 0 0 0 0 0 0 0 0 0 0 0 0 0 0 0 0 0 0 0 0 0 0 0 0 0 0 0 0 0 0 0 0 0 0 0 0 0 0 0 0 0 0 0 0 0 0 0 0 0 0 0 0 0 0 0 0 0 0 0 0 0 0 0 
</DataArray>
<DataArray Name="Stress_13" format="ascii" type="Float64">
3.64163e+06 -9.61226e+07 -1.68942e+08 -1.77543e+08 -1.72996e+08 -1.56827e+08 -1.2896e+08 -8.98465e+07 -3.9678e+07 2.1256e+07 9.22903e+07 1.72479e+08 2.61098e+08 3.57769e+08 4.61924e+08 5.72631e+08 6.8867e+08 8.08642e+08 9.31064e+08 1.05433e+09 1.17681e+09 1.29706e+09 1.41366e+09 1.52482e+09 1.62839e+09 1.72226e+09 1.80501e+09 1.85013e+09 1.00454e+09 1.02989e+09 1.04889e+09 9.82094e+08 1.06776e+09 1.06756e+09 1.06102e+09 1.04826e+09 1.02931e+09 1.001e+09 1.84895e+09 1.80235e+09 1.71627e+09 1.61624e+09 1.50124e+09 1.01357e+09 1.21837e+09 1.04345e+09 8.34816e+08 6.50044e+08 4.92204e+08 1.01976e+09 1.43122e+08 -1.7972e+08 -4.40473e+08 -6.42032e+08 -8.57266e+08 1.01957e+09 -1.38257e+09 -1.61106e+09 -1.80529e+09 -1.9726e+09 -2.11714e+09 1.01306e+09 -2.3479e+09 -2.41124e+09 -1.31131e+09 -1.3423e+09 -1.36517e+09 1.00037e+09 3.86406e+06 -1.38859e+09 3.63703e+08 -1.37079e+09 -1.35372e+09 9.81516e+08 -2.47504e+09 -2.44543e+09 -2.38353e+09 -2.31601e+09 -2.2434e+09 9.589e+08 -2.08524e+09 -2.00081e+09 -1.91313e+09 -1.82231e+09 -1.72867e+09 4.21022e+06 -1.53555e+09 -1.43732e+09 -1.33849e+09 -1.23952e+09 -1.14082e+09 4.09785e+06 -9.45452e+08 -8.49642e+08 -7.5559e+08 -6.63211e+08 -5.72302e+08 3.89398e+06 4.06e+06 -3.08911e+08 2.40688e+08 2.02527e+09 1.087e+09 3.65714e+06 -8.68926e+08 -1.84689e+09 -2.78514e+09 1.09036e+08 -1.89596e+09 3.38493e+06 8.22725e+07 1.07139e+09 2.02082e+09 3.07324e+06 3.51348e+06 2.71623e+06 -5.1036e+06 2.30374e+06 4.19089e+06 -17991.7 9.61719e+07 -1.28437e+09 1.81308e+06 3.39601e+06 1.38183e+06 -9.06842e+08 1.01893e+06 -2.84538e+09 -1.33203e+09 697945 -1.61935e+06 284872 9.59369e+08 173729 -1.46748e+08 -2.01535e+06 -388649 -944484 -1.3961e+06 -4.11605e+06 -1.04267e+09 -1.24691e+09 -1.89184e+06 -4.72772e+06 1.09036e+08 1.06153e+09 -1.2926e+09 -3.529e+08 -1.88608e+09 -3.65809e+06 -1.7145e+09 -1.62394e+09 1.60132e+08 -6.51502e+08 -1.26679e+09 -2.25261e+09 -1.53052e+09 -1.28673e+09 -5.30703e+08 -5.14688e+06 3.13214e+06 -5.39828e+06 -547432 -5.55217e+06 -1.95909e+08 -4.64784e+08 -1.14071e+09 -2.95637e+08 -4.31857e+06 -1.84689e+09 -1.2946e+09 -1.27497e+09 865331 -7.31891e+08 -1.31733e+09 -2.92286e+08 -3.59068e+08 -8.44783e+08 -1.33994e+09 -2.91344e+08 6.13109e+08 -1.3406e+09 1.36946e+09 -1.43484e+09 -1.33469e+09 -1.25804e+09 1.12963e+06 -9.69473e+08 -1.29195e+09 -1.32288e+09 -1.30588e+09 -2.65455e+07 -2.84371e+08 -5.67614e+06 146914 -3.87996e+06 -1.33231e+09 -5.58337e+06 -1.24071e+09 1.40649e+06 -1.23872e+09 2.85508e+06 -1.82813e+08 1.98424e+06 -5.43641e+06 1.91883e+09 -1.23951e+09 1.087e+09 -4.51106e+06 -2.82364e+08 -4.92031e+06 -3.65196e+06 -8.68926e+08 -2.29295e+09 1.69255e+06 -1.46175e+09 -4.52702e+06 -2.68152e+09 1.10123e+09 -2.73658e+09 -4.83084e+08 -2.82367e+08 -1.89596e+09 194705 -2.24161e+09 -1.04173e+09 -9.06842e+08 2.27774e+06 -7.47455e+08 -2.24464e+09 1.43061e+09 -1.65222e+09 1.45578e+09 -3.42046e+06 1.52357e+09 -3.18667e+06 1.60542e+09 -9.42998e+08 1.91431e+09 1.67025e+09 -4.10264e+06 -3.7374e+08 -2.71575e+06 9.14203e+08 1.32785e+09 8.22725e+07 -2.48072e+06 -2.18309e+09 9.34303e+08 -1.81672e+09 -2.24696e+06 -2.18669e+09 2.56915e+06 -614155 -1.38792e+09 -3.95026e+08 -453795 -1.78706e+06 -333710 -1.26949e+09 -1.38266e+09 -3.29799e+06 -187898 -2.9514e+06 1.07139e+09 -1.33766e+09 -1.34284e+06 -2.11592e+09 -1.80192e+09 -1.95908e+09 -1.12623e+06 9.52475e+08 -913629 385544 -806414 616544 -1.49046e+08 -5.57299e+08 1.91318e+06 3.45591e+08 -1.22226e+09 7.35712e+08 -2.47008e+06 -1.65929e+08 -2.04365e+09 1.63987e+09 -2.0818e+09 -1.56295e+06 3.52149e+06 -1.56644e+08 1.00406e+09 -5.27606e+06 -3.75427e+08 1.94105e+06 -3.30887e+08 -1.10541e+09 -2.4064e+08 -1.79092e+08 -1.07403e+08 -2.16627e+09 6.27616e+07 -4.85261e+06 2.6496e+08 3.76267e+08 4.92793e+08 -1.55164e+06 -1.38025e+09 8.58985e+08 9.81297e+08 -1.28637e+09 1.21736e+09 -3.12056e+06 -1.96683e+09 -1.26383e+08 -1.82426e+08 -559315 -652880 -4.8809e+06 9.53106e+08 9.65613e+08 9.71772e+08 9.71576e+08 9.65107e+08 -4.98385e+06 9.33723e+08 9.13744e+08 1.68767e+09 -1.63283e+09 1.5547e+09 -3.38561e+06 1.34213e+09 1.21208e+09 1.06327e+09 8.91703e+08 6.8818e+08 5.10705e+08 
</DataArray>
<DataArray Name="Stress_23" format="ascii" type="Float64">
1.12691e+06 -5.51843e+09 -5.04021e+09 -4.80003e+09 -4.55991e+09 -4.3198e+09 -4.0797e+09 -3.83961e+09 -3.59951e+09 -3.35942e+09 -3.11934e+09 -2.87926e+09 -2.63919e+09 -2.39913e+09 -2.15907e+09 -1.91902e+09 -1.67899e+09 -1.43896e+09 -1.19895e+09 -9.58946e+08 -7.18958e+08 -4.78982e+08 -2.39019e+08 928433 2.40857e+08 4.8077e+08 7.20674e+08 9.62313e+08 1.20369e+09 1.44295e+09 1.68211e+09 1.44738e+09 2.1604e+09 2.39955e+09 2.63871e+09 2.87788e+09 3.11706e+09 1.68528e+09 3.59768e+09 3.83931e+09 4.07919e+09 4.31907e+09 4.55894e+09 1.92315e+09 5.03864e+09 5.27843e+09 5.51817e+09 5.69787e+09 5.8175e+09 2.16101e+09 5.96619e+09 5.96608e+09 5.90664e+09 5.81706e+09 5.69741e+09 2.39887e+09 5.27805e+09 5.0383e+09 4.79851e+09 4.55869e+09 4.31885e+09 2.63678e+09 3.83915e+09 3.59761e+09 3.35595e+09 3.11642e+09 2.87747e+09 2.87471e+09 2.1927e+06 2.16035e+09 5.76259e+09 1.68193e+09 1.44258e+09 3.11264e+09 9.62246e+08 7.20518e+08 4.80569e+08 2.40615e+08 656627 3.3318e+09 -4.79277e+08 -7.19249e+08 -9.59222e+08 -1.1992e+09 -1.43918e+09 1.59471e+07 -1.91915e+09 -2.15914e+09 -2.39914e+09 -2.63914e+09 -2.87915e+09 1.71055e+07 -3.35916e+09 -3.59917e+09 -3.83919e+09 -4.0792e+09 -4.31921e+09 1.81708e+07 3.25791e+06 -5.03912e+09 5.84007e+09 3.3022e+09 3.3022e+09 1.92358e+07 3.3022e+09 3.3022e+09 3.3022e+09 3.3022e+09 1.0298e+09 2.03003e+07 1.0298e+09 1.0298e+09 1.0298e+09 2.13642e+07 5.03567e+06 2.24269e+07 42499.8 2.34874e+07 4.41305e+06 -1.38856e+07 5.88239e+09 2.63392e+09 2.45448e+07 60094.7 2.53319e+07 1.0298e+09 2.58482e+07 1.0298e+09 1.20345e+09 2.62208e+07 5.03567e+06 2.64475e+07 1.22821e+09 -1.28093e+07 5.87992e+09 -1.49456e+07 2.64418e+07 2.62037e+07 2.58244e+07 2.13486e+07 -3.11915e+09 3.1057e+09 2.53074e+07 -2.09602e+06 3.2186e+09 1.92126e+09 2.16141e+09 5.83271e+09 -4.59747e+08 2.24089e+07 -9.38209e+08 -1.17751e+09 -2.37562e+09 -3.57688e+09 3.33087e+09 3.54503e+09 -1.41692e+09 1.92476e+09 5.75238e+09 1.81609e+07 -1.00789e+06 1.70972e+07 -1.81949e+07 1.59433e+07 -5.04083e+09 -4.05765e+09 -2.37596e+09 -5.03781e+09 -4.2353e+06 3.2186e+09 3.11106e+09 1.68772e+09 -9.58267e+06 5.64041e+09 2.87367e+09 -4.79973e+09 -4.31453e+09 -3.09624e+09 2.39861e+09 -3.82895e+09 -1.41088e+09 2.16088e+09 4.7988e+09 -1.6565e+09 1.92297e+09 1.45033e+09 -8.50812e+06 5.46805e+09 2.39777e+09 1.68483e+09 1.44646e+09 -2.85936e+09 -4.53844e+09 4.40872e+06 5.03567e+06 -6.37517e+06 2.6362e+09 3.2478e+06 1.25178e+09 -7.43427e+06 5.23509e+09 -2.07694e+06 -5.33137e+09 -5.28891e+06 2.1797e+06 3.2186e+09 -2.13604e+09 3.2186e+09 2.02869e+07 -5.0365e+09 -1.0266e+06 -7.44561e+06 3.2186e+09 1.01287e+09 -6.36119e+06 5.00095e+09 -3.16562e+06 3.2186e+09 -4.51493e+08 1.1134e+09 -4.55923e+09 -4.78754e+09 1.1134e+09 1.53213e+07 4.07901e+09 -2.61597e+09 1.1134e+09 -4.21747e+06 -3.33651e+09 7.34507e+08 2.64002e+08 4.76574e+09 4.29862e+09 -8.51639e+06 5.01568e+08 -9.5874e+06 7.3888e+08 -2.85607e+09 1.1134e+09 1.01475e+09 -5.30511e+06 -4.29802e+09 -1.17301e+07 1.25274e+09 2.59942e+07 1.1134e+09 -1.28017e+07 4.95943e+08 1.45181e+09 4.5299e+09 -1.38735e+07 3.82045e+09 -3.14683e+06 -1.92729e+07 2.39944e+09 -4.79917e+09 -1.71172e+07 -1.60179e+07 -1.60396e+07 2.86987e+09 1.92119e+09 1.53213e+07 -1.49623e+07 -1.06586e+07 1.1134e+09 -1.89622e+09 -1.81625e+07 2.57232e+08 -6.98961e+08 4.29366e+09 -1.92347e+07 2.87154e+09 -2.03071e+07 -1.17334e+07 -2.13987e+07 -1.06578e+07 -5.51784e+09 -3.81728e+09 5.03567e+06 5.90696e+09 3.3058e+09 -1.17051e+09 2.45217e+07 -5.4246e+09 1.83834e+07 3.82402e+09 4.05716e+09 -1.70902e+07 1.53213e+07 -5.33371e+09 3.35632e+09 1.11126e+06 -4.55752e+09 1.53213e+07 -4.07169e+09 5.51774e+09 -3.58629e+09 -3.34376e+09 -3.10145e+09 -2.39308e+08 -2.61743e+09 1.92242e+07 -2.134e+09 -1.89264e+09 -1.65159e+09 1.53213e+07 2.63848e+09 -9.30498e+08 -6.90835e+08 1.22761e+09 -2.1252e+08 2.34666e+07 -2.20613e+08 -5.42607e+09 -5.04052e+09 -2.14279e+07 -2.03512e+07 1.53213e+07 1.68845e+09 1.92504e+09 2.16161e+09 2.3982e+09 2.63484e+09 5.03567e+06 3.10823e+09 3.30728e+09 3.54667e+09 -1.67916e+09 4.06137e+09 5.03567e+06 4.53568e+09 4.77243e+09 5.00869e+09 5.24399e+09 5.47799e+09 5.65092e+09 
</DataArray>
<DataArray Name="Stress_33" format="ascii" type="Float64">
0 0 0 0 0 0 0 0 0 0 0 0 0 0 0 0 0 0 0 0 0 0 0 0 0 0 0 0 0 0 0 0 0 0 0 0 0 0 0 0 0 0 0 0 0 0 0 0 0 0 0 0 0 0 0 0 0 0 0 0 0 0 0 0 0 0 0 0 0 0 0 0 0 0 0 0 0 0 0 0 0 0 0 0 0 0 0 0 0 0 0 0 0 0 0 0 0 0 0 0 0 0 0 0 0 0 0 0 0 0 0 0 0 0 0 0 0 0 0 0 0 0 0 0 0 0 0 0 0 0 0 0 0 0 0 0 0 0 0 0 0 0 0 0 0 0 0 0 0 0 0 0 0 0 0 0 0 0 0 0 0 0 0 0 0 0 0 0 0 0 0 0 0 0 0 0 0 0 0 0 0 0 0 0 0 0 0 0 0 0 0 0 0 0 0 0 0 0 0 0 0 0 0 0 0 0 0 0 0 0 0 0 0 0 0 0 0 0 0 0 0 0 0 0 0 0 0 0 0 0 0 0 0 0 0 0 0 0 0 0 0 0 0 0 0 0 0 0 0 0 0 0 0 0 0 0 0 0 0 0 0 0 0 0 0 0 0 0 0 0 0 0 0 0 0 0 0 0 0 0 0 0 0 0 0 0 0 0 0 0 0 0 0 0 0 0 0 0 0 0 0 0 0 0 0 0 0 0 0 0 0 0 0 0 0 0 0 0 0 0 0 0 0 0 0 0 0 0 0 0 0 0 0 0 0 0 
</DataArray>
</CellData>
<Points>
<DataArray NumberOfComponents="3" format="ascii" type="Float64">