<?xml version="1.0"?>
<VTKFile byte_order="LittleEndian" type="UnstructuredGrid" version="0.1">
<UnstructuredGrid>
<Piece NumberOfCells="336" NumberOfPoints="440">
<PointData>
<DataArray Name="Warping_X" format="ascii" type="Float64">
-1.37758e-10 -9.0634e-11 -7.93399e-11 -2.29807e-12 -5.57382e-12 -1.32241e-11 -2.4273e-11 -3.79996e-11 -5.37476e-11 -7.07341e-11 -8.80843e-11 -1.04924e-10 -1.20609e-10 -1.34513e-10 -1.45918e-10 -1.54087e-10 -1.58302e-10 -1.57931e-10 -1.5244e-10 -1.41404e-10 -1.24554e-10 -1.01804e-10 -7.3205e-11 -3.89901e-11 3.47031e-13 4.4008e-11 9.08711e-11 1.60013e-10 1.81689e-10 2.13165e-10 2.44182e-10 2.74265e-10 3.02974e-10 3.29899e-10 3.54649e-10 3.76842e-10 3.96018e-10 4.07441e-10 4.53087e-10 4.77263e-10 4.94156e-10 5.0226e-10 5.00017e-10 4.85757e-10 4.57429e-10 4.12014e-10 3.43511e-10 2.96566e-10 2.33264e-10 1.97698e-10 1.06288e-10 -2.0417e-11 -7.80634e-11 -1.71432e-10 -2.40486e-10 -3.43992e-10 -4.15683e-10 -4.64001e-10 -4.93543e-10 -5.0743e-10 -5.08025e-10 -4.97443e-10 -4.77793e-10 -4.36366e-10 -4.26288e-10 -4.08668e-10 -3.87355e-10 -3.62991e-10 -3.36204e-10 -3.07547e-10 -2.77573e-10 -2.46863e-10 -2.15953e-10 -1.95033e-10 -1.26728e-10 -8.01813e-11 -3.60485e-11 4.94968e-12 4.23368e-11 7.57723e-11 1.05014e-10 1.29864e-10 1.50141e-10 1.65715e-10 1.76514e-10 1.82602e-10 1.84084e-10 1.81034e-10 1.7358e-10 1.61926e-10 1.46242e-10 1.26706e-10 1.03598e-10 7.72241e-11 4.78323e-11 1.54376e-11 -1.9827e-11 -5.75661e-11 -2.28903e-11 -6.0878e-11 2.93233e-10 1.41301e-10 -1.47146e-11 -1.70553e-10 -3.2194e-10 -1.40837e-10 -7.71043e-11 -1.75651e-11 4.19541e-11 1.05621e-10 -1.54009e-10 -9.44174e-11 -8.31265e-11 -7.95513e-11 -7.99835e-11 -8.46325e-11 -9.2619e-11 -1.03217e-10 -1.1578e-10 -1.29529e-10 -1.43592e-10 -1.57084e-10 -1.69353e-10 -1.79767e-10 -1.87605e-10 -1.92117e-10 -1.9257e-10 -1.88308e-10 -1.78773e-10 -1.63512e-10 -1.42232e-10 -1.14825e-10 -8.13059e-11 -4.18517e-11 3.08308e-12 5.28398e-11 1.06389e-10 1.54341e-10 1.87261e-10 2.19547e-10 2.51366e-10 2.82257e-10 3.11771e-10 3.39492e-10 3.65024e-10 3.87982e-10 4.0791e-10 4.24915e-10 4.83372e-10 5.1296e-10 5.34512e-10 5.46718e-10 5.48117e-10 5.37002e-10 5.11249e-10 4.67603e-10 3.99777e-10 3.51065e-10 2.83802e-10 2.35366e-10 1.10551e-10 -4.92219e-11 -1.19605e-10 -2.19018e-10 -2.91738e-10 -3.96446e-10 -4.67602e-10 -5.14088e-10 -5.4095e-10 -5.51498e-10 -5.48203e-10 -5.33137e-10 -5.08219e-10 -4.52938e-10 -4.38163e-10 -4.19783e-10 -3.97695e-10 -3.7254e-10 -3.44955e-10 -3.15499e-10 -2.84736e-10 -2.53257e-10 -2.21584e-10 -1.8971e-10 -1.43026e-10 -9.01692e-11 -4.02325e-11 6.19657e-12 4.87945e-11 8.72423e-11 1.21327e-10 1.50865e-10 1.75675e-10 1.95623e-10 2.10639e-10 2.20791e-10 2.26193e-10 2.26922e-10 2.23111e-10 2.1497e-10 2.02671e-10 1.86398e-10 1.66439e-10 1.43104e-10 1.1664e-10 8.70599e-11 5.44893e-11 1.93296e-11 -1.91306e-11 -5.71289e-11 3.04634e-10 1.46748e-10 -1.47095e-11 -1.7599e-10 -3.33368e-10 -1.2923e-10 -7.16413e-11 -1.75853e-11 3.64504e-11 9.39596e-11 -1.86528e-10 -1.01988e-10 -9.06745e-11 -8.57353e-11 -8.59695e-11 -9.03819e-11 -9.81343e-11 -1.08497e-10 -1.20822e-10 -1.34329e-10 -1.48146e-10 -1.61391e-10 -1.73407e-10 -1.83564e-10 -1.91139e-10 -1.95381e-10 -1.95555e-10 -1.91002e-10 -1.81162e-10 -1.65579e-10 -1.43958e-10 -1.16188e-10 -8.22822e-11 -4.24154e-11 2.95235e-12 5.31614e-11 1.07143e-10 1.64176e-10 1.9832e-10 2.32265e-10 2.65704e-10 2.98226e-10 3.29367e-10 3.58696e-10 3.85809e-10 4.10307e-10 4.31797e-10 4.49911e-10 4.86952e-10 5.1695e-10 5.38928e-10 5.51534e-10 5.53295e-10 5.4249e-10 5.16971e-10 4.73444e-10 4.05531e-10 3.56724e-10 2.89016e-10 2.39329e-10 1.11004e-10 -5.22471e-11 -1.23869e-10 -2.23949e-10 -2.9697e-10 -4.01964e-10 -4.73139e-10 -5.19477e-10 -5.46083e-10 -5.56301e-10 -5.52626e-10 -5.37145e-10 -5.11819e-10 -4.77814e-10 -4.62019e-10 -4.42068e-10 -4.18414e-10 -3.91656e-10 -3.62454e-10 -3.31384e-10 -2.9903e-10 -2.66002e-10 -2.32756e-10 -1.99571e-10 -1.43881e-10 -9.06411e-11 -4.02894e-11 6.55225e-12 4.95599e-11 8.84064e-11 1.22877e-10 1.52788e-10 1.77957e-10 1.98251e-10 2.13598e-10 2.24066e-10 2.29772e-10 2.30792e-10 2.27261e-10 2.19388e-10 2.07347e-10 1.91322e-10 1.71602e-10 1.48497e-10 1.22253e-10 9.28839e-11 6.05209e-11 2.55263e-11 -1.16137e-11 -4.96305e-11 3.05734e-10 1.47314e-10 -1.47094e-11 -1.76555e-10 -3.34468e-10 -1.2812e-10 -7.10717e-11 -1.75879e-11 3.58756e-11 9.28443e-11 -1.05281e-10 -8.30478e-11 -7.18063e-11 3.93149e-12 3.85784e-13 -7.49724e-12 -1.87862e-11 -3.27578e-11 -4.87524e-11 -6.59878e-11 -8.35888e-11 -1.00682e-10 -1.16625e-10 -1.30791e-10 -1.42461e-10 -1.50903e-10 -1.55399e-10 -1.55319e-10 -1.50132e-10 -1.39417e-10 -1.22906e-10 -1.00516e-10 -7.22989e-11 -3.84907e-11 4.15724e-13 4.36449e-11 9.01061e-11 1.50368e-10 1.70394e-10 2.00367e-10 2.29781e-10 2.58266e-10 2.85383e-10 3.10733e-10 3.33936e-10 3.54604e-10 3.72377e-10 3.82284e-10 4.49526e-10 4.73307e-10 4.89794e-10 4.97503e-10 4.94904e-10 4.80344e-10 4.51791e-10 4.06274e-10 3.37867e-10 2.91023e-10 2.28173e-10 1.93832e-10 1.05841e-10 -1.74824e-11 -7.39181e-11 -1.66623e-10 -2.35378e-10 -3.3859e-10 -4.10245e-10 -4.58701e-10 -4.88489e-10 -5.02696e-10 -5.03665e-10 -4.93478e-10 -4.74212e-10 -4.1132e-10 -4.02696e-10 -3.86483e-10 -3.66713e-10 -3.43912e-10 -3.18704e-10 -2.91627e-10 -2.63211e-10 -2.34041e-10 -2.04554e-10 -1.85354e-10 -1.25869e-10 -7.96772e-11 -3.59424e-11 4.64224e-12 4.16231e-11 7.46633e-11 1.03522e-10 1.28002e-10 1.47921e-10 1.63152e-10 1.73623e-10 1.79395e-10 1.80574e-10 1.77234e-10 1.695e-10 1.57578e-10 1.41637e-10 1.21853e-10 9.85054e-11 7.19015e-11 4.22877e-11 9.68252e-12 -2.57776e-11 -6.37305e-11 -3.03955e-11 -6.83745e-11 2.92107e-10 1.40734e-10 -1.47153e-11 -1.69987e-10 -3.20816e-10 -1.41974e-10 -7.76752e-11 -1.75635e-11 4.25284e-11 1.0676e-10 
</DataArray>
<DataArray Name="Warping_Y" format="ascii" type="Float64">
2.04277e-09 1.67114e-09 1.48122e-09 1.29329e-09 1.1083e-09 9.30673e-10 7.60034e-10 5.96508e-10 4.40171e-10 2.91157e-10 1.49622e-10 1.56864e-11 -1.10516e-10 -2.28756e-10 -3.38756e-10 -4.40208e-10 -5.32766e-10 -6.16046e-10 -6.89611e-10 -7.52982e-10 -8.05656e-10 -8.47105e-10 -8.76776e-10 -8.94131e-10 -8.98684e-10 -8.9024e-10 -8.69543e-10 -8.22857e-10 -7.96038e-10 -7.51366e-10 -7.00883e-10 -6.44505e-10 -5.82205e-10 -5.1397e-10 -4.39831e-10 -3.59841e-10 -2.74111e-10 -2.11994e-10 -8.92289e-11 2.03294e-11 1.42312e-10 2.77064e-10 4.24139e-10 5.82645e-10 7.51284e-10 9.2799e-10 1.11032e-09 1.20157e-09 1.29409e-09 1.33234e-09 1.36886e-09 1.33149e-09 1.29051e-09 1.19899e-09 1.10894e-09 9.27959e-10 7.51784e-10 5.83147e-10 4.24361e-10 2.76925e-10 1.4186e-10 1.96481e-11 -9.01101e-11 -2.12134e-10 -2.75207e-10 -3.60708e-10 -4.40332e-10 -5.1404e-10 -5.81854e-10 -6.43797e-10 -6.99966e-10 -7.50475e-10 -7.95459e-10 -8.22345e-10 -8.70825e-10 -8.94204e-10 -9.06394e-10 -9.06341e-10 -8.93913e-10 -8.69294e-10 -8.32753e-10 -7.84611e-10 -7.25203e-10 -6.54879e-10 -5.73996e-10 -4.82931e-10 -3.82084e-10 -2.7183e-10 -1.52515e-10 -2.44979e-11 1.11867e-10 2.56262e-10 4.08379e-10 5.67888e-10 7.34433e-10 9.07705e-10 1.08733e-09 1.27318e-09 1.4779e-09 1.66897e-09 -1.80617e-10 -1.57424e-10 -1.49701e-10 -1.57376e-10 -1.80522e-10 -7.90429e-10 -7.66747e-10 -7.58906e-10 -7.66846e-10 -7.90627e-10 2.14059e-09 1.67083e-09 1.4811e-09 1.29337e-09 1.11047e-09 9.34253e-10 7.64959e-10 6.02491e-10 4.46918e-10 2.9835e-10 1.5692e-10 2.27974e-11 -1.03836e-10 -2.22765e-10 -3.33731e-10 -4.36424e-10 -5.30476e-10 -6.15467e-10 -6.90923e-10 -7.56316e-10 -8.1108e-10 -8.5464e-10 -8.86389e-10 -9.05704e-10 -9.12068e-10 -9.05203e-10 -8.85042e-10 -8.39479e-10 -8.00307e-10 -7.55639e-10 -7.05058e-10 -6.48533e-10 -5.8602e-10 -5.17517e-10 -4.43052e-10 -3.62694e-10 -2.76495e-10 -1.84653e-10 -9.47077e-11 1.66162e-11 1.41169e-10 2.78795e-10 4.2911e-10 5.91343e-10 7.6437e-10 9.46703e-10 1.13628e-09 1.23424e-09 1.33524e-09 1.38616e-09 1.43862e-09 1.39003e-09 1.34012e-09 1.24054e-09 1.14329e-09 9.53827e-10 7.70688e-10 5.96476e-10 4.32976e-10 2.81475e-10 1.42837e-10 1.74585e-11 -9.45052e-11 -1.84715e-10 -2.77335e-10 -3.63404e-10 -4.43476e-10 -5.17558e-10 -5.85659e-10 -6.47812e-10 -7.04104e-10 -7.54678e-10 -7.99625e-10 -8.39165e-10 -8.85779e-10 -9.08831e-10 -9.19803e-10 -9.18443e-10 -9.04644e-10 -8.78554e-10 -8.40475e-10 -7.90735e-10 -7.29675e-10 -6.57665e-10 -5.75096e-10 -4.82383e-10 -3.79928e-10 -2.68107e-10 -1.47291e-10 -1.78463e-11 1.19877e-10 2.65543e-10 4.18818e-10 5.79383e-10 7.46922e-10 9.21133e-10 1.10183e-09 1.28848e-09 1.47862e-09 1.66968e-09 -1.49556e-10 -1.25783e-10 -1.17947e-10 -1.25816e-10 -1.49618e-10 -8.03213e-10 -7.78971e-10 -7.71003e-10 -7.79076e-10 -8.03429e-10 2.33623e-09 1.67017e-09 1.48084e-09 1.29332e-09 1.11059e-09 9.345e-10 7.65316e-10 6.02939e-10 4.47436e-10 2.98913e-10 1.57504e-10 2.33796e-11 -1.03273e-10 -2.22242e-10 -3.33268e-10 -4.36041e-10 -5.30195e-10 -6.15306e-10 -6.90897e-10 -7.56437e-10 -8.11356e-10 -8.55074e-10 -8.86981e-10 -9.06447e-10 -9.12949e-10 -9.06186e-10 -8.8615e-10 -8.48059e-10 -8.09224e-10 -7.64483e-10 -7.13734e-10 -6.56909e-10 -5.93973e-10 -5.24931e-10 -4.49819e-10 -3.68698e-10 -2.81641e-10 -1.88749e-10 -9.51035e-11 1.64704e-11 1.41258e-10 2.79168e-10 4.29806e-10 5.92411e-10 7.65872e-10 9.48743e-10 1.13897e-09 1.23764e-09 1.33948e-09 1.39174e-09 1.44578e-09 1.39606e-09 1.34518e-09 1.24481e-09 1.1468e-09 9.56595e-10 7.72794e-10 5.98033e-10 4.34062e-10 2.82153e-10 1.43157e-10 1.74839e-11 -9.47748e-11 -1.88833e-10 -2.81965e-10 -3.69095e-10 -4.5009e-10 -5.24915e-10 -5.93594e-10 -6.56163e-10 -7.1271e-10 -7.63384e-10 -8.0834e-10 -8.47731e-10 -8.86863e-10 -9.09809e-10 -9.20712e-10 -9.19255e-10 -9.05353e-10 -8.79151e-10 -8.40956e-10 -7.91096e-10 -7.29911e-10 -6.57774e-10 -5.75079e-10 -4.82244e-10 -3.79672e-10 -2.67737e-10 -1.46812e-10 -1.72653e-11 1.20555e-10 2.6631e-10 4.19665e-10 5.80302e-10 7.4791e-10 9.22187e-10 1.10294e-09 1.28965e-09 1.48005e-09 1.67111e-09 -1.4643e-10 -1.22486e-10 -1.14635e-10 -1.22526e-10 -1.46506e-10 -8.04479e-10 -7.80069e-10 -7.72085e-10 -7.80173e-10 -8.04692e-10 1.84714e-09 1.67173e-09 1.48148e-09 1.29321e-09 1.10808e-09 9.30319e-10 7.59573e-10 5.95959e-10 4.39554e-10 2.90497e-10 1.48946e-10 1.50149e-11 -1.11164e-10 -2.29361e-10 -3.39298e-10 -4.40664e-10 -5.33118e-10 -6.16275e-10 -6.89703e-10 -7.52925e-10 -8.05442e-10 -8.46732e-10 -8.76244e-10 -8.93447e-10 -8.97862e-10 -8.89307e-10 -8.68522e-10 -8.14733e-10 -7.87759e-10 -7.43158e-10 -6.92851e-10 -6.36774e-10 -5.74896e-10 -5.072e-10 -4.33707e-10 -3.54473e-10 -2.69605e-10 -2.08338e-10 -8.88872e-11 2.04333e-11 1.42176e-10 2.76642e-10 4.23393e-10 5.81529e-10 7.49737e-10 9.25916e-10 1.10762e-09 1.19817e-09 1.28987e-09 1.32681e-09 1.36179e-09 1.32552e-09 1.2855e-09 1.19474e-09 1.10544e-09 9.25177e-10 7.49648e-10 5.81554e-10 4.23234e-10 2.76205e-10 1.41496e-10 1.95824e-11 -8.98965e-11 -2.08456e-10 -2.71213e-10 -3.55652e-10 -4.34362e-10 -5.07329e-10 -5.74567e-10 -6.36093e-10 -6.92006e-10 -7.42411e-10 -7.87389e-10 -8.14243e-10 -8.6983e-10 -8.93282e-10 -9.05551e-10 -9.05595e-10 -8.93272e-10 -8.68765e-10 -8.32342e-10 -7.84322e-10 -7.25039e-10 -6.54843e-10 -5.74087e-10 -4.83145e-10 -3.82418e-10 -2.72279e-10 -1.53075e-10 -2.5162e-11 1.11104e-10 2.55408e-10 4.07443e-10 5.66877e-10 7.33352e-10 9.06555e-10 1.08612e-09 1.27189e-09 1.47645e-09 1.66754e-09 -1.83688e-10 -1.6057e-10 -1.52904e-10 -1.60515e-10 -1.83579e-10 -7.89105e-10 -7.65497e-10 -7.57717e-10 -7.65597e-10 -7.89306e-10 
</DataArray>
<DataArray Name="Warping_Z" format="ascii" type="Float64">
0 0 0 0 0 0 0 0 0 0 0 0 0 0 0 0 0 0 0 0 0 0 0 0 0 0 0 0 0 0 0 0 0 0 0 0 0 0 0 0 0 0 0 0 0 0 0 0 0 0 0 0 0 0 0 0 0 0 0 0 0 0 0 0 0 0 0 0 0 0 0 0 0 0 0 0 0 0 0 0 0 0 0 0 0 0 0 0 0 0 0 0 0 0 0 0 0 0 0 0 0 0 0 0 0 0 0 0 0 0 0 0 0 0 0 0 0 0 0 0 0 0 0 0 0 0 0 0 0 0 0 0 0 0 0 0 0 0 0 0 0 0 0 0 0 0 0 0 0 0 0 0 0 0 0 0 0 0 0 0 0 0 0 0 0 0 0 0 0 0 0 0 0 0 0 0 0 0 0 0 0 0 0 0 0 0 0 0 0 0 0 0 0 0 0 0 0 0 0 0 0 0 0 0 0 0 0 0 0 0 0 0 0 0 0 0 0 0 0 0 0 0 0 0 0 0 0 0 0 0 0 0 0 0 0 0 0 0 0 0 0 0 0 0 0 0 0 0 0 0 0 0 0 0 0 0 0 0 0 0 0 0 0 0 0 0 0 0 0 0 0 0 0 0 0 0 0 0 0 0 0 0 0 0 0 0 0 0 0 0 0 0 0 0 0 0 0 0 0 0 0 0 0 0 0 0 0 0 0 0 0 0 0 0 0 0 0 0 0 0 0 0 0 0 0 0 0 0 0 0 0 0 0 0 0 0 0 0 0 0 0 0 0 0 0 0 0 0 0 0 0 0 0 0 0 0 0 0 0 0 0 0 0 0 0 0 0 0 0 0 0 0 0 0 0 0 0 0 0 0 0 0 0 0 0 0 0 0 0 0 0 0 0 0 0 0 0 0 0 0 0 0 0 0 0 0 0 0 0 0 0 0 0 0 0 0 0 0 0 0 0 0 0 0 0 0 0 0 0 0 0 0 0 0 0 0 0 0 0 0 
</DataArray>
</PointData>
<CellData>
<DataArray Name="MaterialId" format="ascii" type="Float64">
4 3 3 3 3 3 3 3 3 3 3 3 3 3 3 3 3 3 3 3 3 3 3 3 3 3 3 3 1 1 1 1 1 1 1 1 1 1 3 3 3 3 3 1 3 3 3 3 3 1 3 3 3 3 3 1 3 3 3 3 3 1 3 3 1 1 1 1 4 1 3 1 1 1 3 3 3 3 3 1 3 3 3 3 3 4 3 3 3 3 3 4 3 3 3 3 3 4 4 3 3 2 2 4 2 2 2 2 2 4 2 2 2 4 4 4 4 4 4 4 3 1 4 4 4 2 4 2 1 4 4 4 1 4 3 4 4 4 4 4 3 1 4 4 2 1 1 3 3 4 3 3 3 3 1 3 3 1 3 4 4 4 4 4 3 3 3 3 4 2 1 1 4 3 1 3 3 3 1 3 3 1 3 3 1 1 4 3 1 1 1 3 3 4 4 4 1 4 1 4 3 4 3 4 4 2 3 2 4 3 4 4 2 3 4 3 4 2 3 2 3 3 2 4 3 3 2 4 3 3 3 3 3 4 3 4 3 3 2 3 4 3 4 1 3 2 4 3 1 3 4 3 4 4 1 3 4 4 4 1 1 4 4 4 2 3 4 3 3 3 4 1 4 4 4 4 3 3 4 3 1 3 4 3 3 3 3 4 4 3 1 4 3 4 3 3 3 3 3 3 3 4 3 3 3 4 1 3 3 1 3 4 3 3 3 4 4 4 1 1 1 1 1 4 1 1 3 3 3 4 3 3 3 3 3 3 
</DataArray>
<DataArray Name="FiberAngle" format="ascii" type="Float64">
0 0 0 0 0 0 0 0 0 0 0 0 0 0 0 0 0 0 0 0 0 0 0 0 0 0 0 0 0 0 0 0 0 0 0 0 0 0 0 0 0 0 0 0 0 0 0 0 0 0 0 0 0 0 0 0 0 0 0 0 0 0 0 0 0 0 0 0 0 0 0 0 0 0 0 0 0 0 0 0 0 0 0 0 0 0 0 0 0 0 0 0 0 0 0 0 0 0 0 0 0 0 0 0 0 0 0 0 0 0 0 0 0 0 0 0 0 0 0 0 0 0 0 0 0 0 0 0 0 0 0 0 0 0 0 0 0 0 0 0 0 0 0 0 0 0 0 0 0 0 0 0 0 0 0 0 0 0 0 0 0 0 0 0 0 0 0 0 0 0 0 0 0 0 0 0 0 0 0 0 0 0 0 0 0 0 0 0 0 0 0 0 0 0 0 0 0 0 0 0 0 0 0 0 0 0 0 0 0 0 0 0 0 0 0 0 0 0 0 0 0 0 0 0 0 0 0 0 0 0 0 0 0 0 0 0 0 0 0 0 0 0 0 0 0 0 0 0 0 0 0 0 0 0 0 0 0 0 0 0 0 0 0 0 0 0 0 0 0 0 0 0 0 0 0 0 0 0 0 0 0 0 0 0 0 0 0 0 0 0 0 0 0 0 0 0 0 0 0 0 0 0 0 0 0 0 0 0 0 0 0 0 0 0 0 0 0 0 0 0 0 0 0 0 0 0 0 0 0 0 0 0 0 0 0 0 
</DataArray>
<DataArray Name="Strain_11" format="ascii" type="Float64">
6.7365e-10 9.62684e-11 7.51673e-11 6.34661e-11 6.31502e-11 6.90312e-11 7.89995e-11 9.35802e-11 1.12516e-10 1.35689e-10 1.62842e-10 1.93599e-10 2.27667e-10 2.6489e-10 3.05036e-10 3.47731e-10 3.92493e-10 4.38774e-10 4.85996e-10 5.3354e-10 5.80771e-10 6.27142e-10 6.72127e-10 7.15181e-10 7.55419e-10 7.93179e-10 8.25593e-10 8.42322e-10 4.75444e-10 4.80534e-10 4.87509e-10 4.62466e-10 4.94034e-10 4.93337e-10 4.90047e-10 4.84175e-10 4.75998e-10 4.69973e-10 8.30477e-10 8.10184e-10 7.73342e-10 7.30474e-10 6.83221e-10 4.74428e-10 5.6933e-10 5.00345e-10 4.19284e-10 3.49214e-10 2.8777e-10 4.76334e-10 1.52676e-10 3.02804e-11 -6.98474e-11 -1.46438e-10 -2.29412e-10 4.75664e-10 -4.29109e-10 -5.16382e-10 -5.91035e-10 -6.55685e-10 -7.118e-10 4.7245e-10 -8.03429e-10 -8.28982e-10 -4.70265e-10 -4.77903e-10 -4.86411e-10 4.66767e-10 7.0913e-10 -4.94148e-10 2.35405e-10 -4.85567e-10 -4.78104e-10 4.58077e-10 -8.40387e-10 -8.26347e-10 -8.00062e-10 -7.70472e-10 -7.40331e-10 4.56404e-10 -6.7545e-10 -6.41066e-10 -6.05429e-10 -5.68575e-10 -5.30619e-10 7.77664e-10 -4.524e-10 -4.12626e-10 -3.72606e-10 -3.32526e-10 -2.92548e-10 7.2324e-10 -2.13364e-10 -1.74502e-10 -1.36318e-10 -9.88389e-11 -6.21225e-11 6.93806e-10 7.35685e-10 3.56843e-11 1.87171e-10 6.83855e-10 4.16358e-10 6.52404e-10 -1.41279e-10 -4.163e-10 -6.83784e-10 1.41405e-10 -4.19918e-10 6.03442e-10 1.44362e-10 4.22529e-10 6.92961e-10 5.47481e-10 5.30245e-10 4.85771e-10 -6.75411e-10 4.19931e-10 7.79199e-10 1.26595e-10 1.35834e-10 -4.57121e-10 3.56513e-10 6.33997e-10 2.91209e-10 -1.41738e-10 2.2339e-10 -6.90392e-10 -4.73505e-10 1.64598e-10 -1.36069e-10 1.0344e-10 4.61742e-10 1.542e-10 4.31056e-11 -1.71656e-10 5.52138e-11 -2.05331e-11 -9.47612e-11 -4.94655e-10 -2.52777e-10 -4.43197e-10 -1.78422e-10 -6.11903e-10 1.41947e-10 4.92103e-10 -4.59274e-10 -3.37803e-11 -5.87597e-10 -4.19455e-10 -5.21984e-10 -4.87359e-10 1.99084e-10 -1.1577e-10 -4.56909e-10 -7.54977e-10 -4.51644e-10 -4.56381e-10 -1.02093e-10 -6.72074e-10 5.91759e-10 -7.07702e-10 5.09952e-11 -7.66673e-10 7.40168e-11 -4.43282e-11 -3.02668e-10 3.52082e-11 -5.43258e-10 -4.22516e-10 -4.60064e-10 -4.51105e-10 2.53455e-10 -1.775e-10 -4.69061e-10 4.52395e-11 1.61232e-11 -1.89619e-10 -4.76983e-10 3.88129e-11 3.63132e-10 -4.76659e-10 6.29762e-10 -4.15063e-10 -4.73685e-10 -4.43695e-10 2.91448e-10 -2.69533e-10 -4.59572e-10 -4.68365e-10 -4.60386e-10 1.32125e-10 2.33857e-11 -7.84316e-10 1.38097e-10 -4.70629e-10 -4.745e-10 -7.48796e-10 -4.34826e-10 3.31463e-10 -3.71691e-10 5.48267e-10 9.49935e-11 4.16096e-10 -7.29805e-10 6.56001e-10 -3.40415e-10 4.23274e-10 -5.62657e-10 3.55196e-11 -6.44404e-10 -4.33426e-10 -1.41306e-10 -7.59377e-10 3.73137e-10 -4.55299e-10 -5.78158e-10 -6.56129e-10 5.40361e-10 -6.62322e-10 -2.54152e-11 2.56236e-11 -4.2679e-10 1.36306e-10 -7.61326e-10 -2.64855e-10 -1.42326e-10 4.5994e-10 -1.5243e-10 -7.20367e-10 6.58408e-10 -5.25618e-10 6.54421e-10 -3.95976e-10 6.90646e-10 -3.58341e-10 7.16799e-10 -2.27139e-10 6.64562e-10 7.61027e-10 -5.07351e-10 -9.26426e-12 -2.83033e-10 4.36285e-10 6.22031e-10 1.43994e-10 -2.45607e-10 -6.99666e-10 4.45373e-10 -5.8569e-10 -2.08431e-10 -7.13928e-10 5.04178e-10 4.18504e-11 -4.94503e-10 1.0049e-11 6.41934e-11 -1.35438e-10 8.12933e-11 -4.51711e-10 -4.91089e-10 -4.21614e-10 1.02175e-10 -3.20638e-10 4.28356e-10 -3.77921e-10 -6.48968e-11 -6.74881e-10 -5.55411e-10 -6.3685e-10 -3.04398e-11 4.49315e-10 2.40638e-12 1.84648e-10 1.88163e-11 2.17778e-10 9.55457e-11 -7.97531e-11 4.29129e-10 2.31177e-10 -4.32226e-10 4.07692e-10 -2.5967e-10 9.53317e-11 -6.47721e-10 7.17981e-10 -6.80427e-10 -9.98665e-11 5.21577e-10 9.63433e-11 4.69829e-10 -7.04106e-10 1.26927e-11 4.21205e-10 2.54193e-11 -3.22952e-10 5.6379e-11 7.79572e-11 1.03329e-10 -7.08547e-10 1.64086e-10 -6.221e-10 2.36902e-10 2.77178e-10 3.19436e-10 -1.35787e-10 -4.91994e-10 4.52491e-10 4.96894e-10 -4.60144e-10 5.82334e-10 -3.38864e-10 -6.18458e-10 9.62823e-11 7.45587e-11 6.11415e-11 3.78011e-11 -5.21967e-10 4.52406e-10 4.56852e-10 4.58732e-10 4.58088e-10 4.54953e-10 -5.28557e-10 4.41204e-10 4.31183e-10 7.55105e-10 -4.91794e-10 6.90644e-10 -4.26757e-10 6.12444e-10 5.63684e-10 5.07393e-10 4.41475e-10 3.62464e-10 2.91883e-10 
</DataArray>
<DataArray Name="Strain_22" format="ascii" type="Float64">
5.06596e-10 6.17827e-11 5.40903e-11 4.74352e-11 5.0618e-11 5.26256e-11 5.79791e-11 6.5533e-11 7.54237e-11 8.75993e-11 1.01927e-10 1.18202e-10 1.36279e-10 1.56086e-10 1.77509e-10 2.00354e-10 2.2436e-10 2.49227e-10 2.7463e-10 3.00219e-10 3.25635e-10 3.50556e-10 3.74698e-10 3.9744e-10 4.18966e-10 4.35773e-10 4.59676e-10 4.5201e-10 4.68443e-10 4.84023e-10 4.90542e-10 4.62597e-10 4.97055e-10 4.96393e-10 4.93208e-10 4.8738e-10 4.79671e-10 4.70902e-10 4.45857e-10 4.51246e-10 4.26253e-10 4.07051e-10 3.82048e-10 4.74896e-10 3.2094e-10 2.83145e-10 2.36697e-10 1.96065e-10 1.63688e-10 4.7695e-10 8.92418e-11 1.62903e-11 -4.12642e-11 -8.52554e-11 -1.29346e-10 4.7628e-10 -2.41864e-10 -2.90077e-10 -3.31144e-10 -3.66006e-10 -3.9629e-10 4.72927e-10 -4.47872e-10 -4.44963e-10 -4.64215e-10 -4.8152e-10 -4.8973e-10 4.67679e-10 5.32086e-10 -4.97474e-10 1.34779e-10 -4.89051e-10 -4.82197e-10 4.58322e-10 -4.5165e-10 -4.61908e-10 -4.41161e-10 -4.28797e-10 -4.12625e-10 4.47376e-10 -3.78169e-10 -3.59695e-10 -3.40508e-10 -3.20647e-10 -3.0018e-10 5.156e-10 -2.57989e-10 -2.36544e-10 -2.14973e-10 -1.93376e-10 -1.71844e-10 5.4301e-10 -1.29224e-10 -1.08324e-10 -8.78184e-11 -6.76175e-11 -4.7615e-11 5.28731e-10 5.43646e-10 1.43618e-11 1.07391e-10 4.30764e-10 2.43958e-10 5.01954e-10 -8.05745e-11 -2.44297e-10 -4.30834e-10 8.02039e-11 -2.45941e-10 4.74709e-10 8.1696e-11 2.47046e-10 4.36477e-10 4.44242e-10 4.25028e-10 4.07637e-10 -4.85904e-10 3.59719e-10 5.15342e-10 9.74963e-11 7.52169e-11 -4.54878e-10 2.84821e-10 4.81295e-10 2.31559e-10 -8.06315e-11 1.98304e-10 -4.35318e-10 -4.6661e-10 1.7213e-10 -7.99105e-11 1.11798e-10 4.53112e-10 1.19576e-10 2.42501e-11 -1.3581e-10 -1.4781e-12 -6.36028e-11 -1.02382e-10 -4.28483e-10 -1.50434e-10 -4.41157e-10 -1.49048e-10 -4.44819e-10 7.86846e-11 4.95167e-10 -4.57021e-10 -2.00745e-11 -3.39458e-10 -3.81628e-10 -3.00329e-10 -2.7974e-10 1.09795e-10 -5.94493e-11 -4.48564e-10 -4.19833e-10 -2.58539e-10 -4.54037e-10 -5.82177e-11 -5.29431e-10 4.54435e-10 -5.4728e-10 3.8622e-11 -5.16068e-10 3.99403e-11 -1.69937e-11 -1.70263e-10 1.7399e-11 -3.99779e-10 -2.36256e-10 -4.6018e-10 -4.4861e-10 2.00122e-10 -1.01579e-10 -4.70001e-10 1.66863e-11 -2.77502e-13 -1.03271e-10 -4.77606e-10 1.32016e-11 2.07109e-10 -4.77284e-10 3.53791e-10 -2.36852e-10 -4.74162e-10 -4.41598e-10 2.31003e-10 -1.52235e-10 -4.57358e-10 -4.69283e-10 -4.60629e-10 6.96987e-11 2.69913e-11 -5.12289e-10 8.09472e-11 -3.50953e-10 -4.74983e-10 -5.36777e-10 -4.30936e-10 2.63199e-10 -2.11406e-10 4.25252e-10 5.20137e-11 3.29425e-10 -5.27724e-10 4.08539e-10 -1.92624e-10 2.36768e-10 -4.66148e-10 1.86793e-11 -4.65949e-10 -3.25185e-10 -7.81526e-11 -4.23673e-10 2.9619e-10 -2.58456e-10 -4.22747e-10 -4.08579e-10 3.12049e-10 -4.12168e-10 -2.89281e-11 2.50827e-11 -2.39054e-10 7.95512e-11 -4.19932e-10 -1.47862e-10 -7.89645e-11 3.62328e-10 -8.12208e-11 -4.24854e-10 3.83438e-10 -2.99621e-10 3.77443e-10 -2.98775e-10 4.03454e-10 -2.71931e-10 4.23472e-10 -1.25512e-10 4.13763e-10 4.24562e-10 -3.75853e-10 2.95904e-12 -2.17467e-10 4.33126e-10 3.60964e-10 7.9972e-11 -1.90132e-10 -4.08026e-10 4.43743e-10 -3.35208e-10 -1.6288e-10 -4.20674e-10 3.94398e-10 2.80035e-11 -4.9779e-10 -8.82783e-12 4.80295e-11 -1.08991e-10 6.13706e-11 -4.49437e-10 -4.94538e-10 -2.40032e-10 7.80318e-11 -2.44783e-10 2.40063e-10 -2.14845e-10 -5.78719e-11 -3.92558e-10 -3.20245e-10 -3.66534e-10 -2.95888e-11 4.47137e-10 -7.28033e-13 1.44115e-10 7.82859e-12 1.71032e-10 4.37514e-11 -3.81036e-11 2.43315e-10 1.3171e-10 -4.29313e-10 2.33444e-10 -2.20483e-10 4.70984e-11 -3.75621e-10 4.25185e-10 -3.92397e-10 -8.27815e-11 4.19579e-10 5.93214e-11 4.63009e-10 -5.05922e-10 -6.79388e-12 2.40122e-10 4.79665e-12 -1.82319e-10 2.38867e-11 3.70186e-11 5.23575e-11 -3.95923e-10 8.88735e-11 -4.98366e-10 1.32322e-10 1.56237e-10 1.81268e-10 -7.94722e-11 -4.95313e-10 2.59934e-10 2.86236e-10 -4.51108e-10 3.37082e-10 -3.18615e-10 -3.57949e-10 5.98133e-11 4.62981e-11 2.38398e-11 2.24296e-11 -4.19598e-10 4.50361e-10 4.54875e-10 4.56778e-10 4.56103e-10 4.5288e-10 -4.2369e-10 4.39286e-10 4.28104e-10 4.20676e-10 -2.79237e-10 3.99396e-10 -2.4226e-10 3.51054e-10 3.21668e-10 2.88271e-10 2.5102e-10 2.05023e-10 1.66544e-10 
</DataArray>
<DataArray Name="Strain_12" format="ascii" type="Float64">
-1.24884e-10 -2.50512e-12 -1.28319e-12 -3.64181e-12 -2.19784e-12 2.17351e-12 3.12187e-12 3.58504e-12 4.29201e-12 4.78921e-12 5.07349e-12 5.16888e-12 5.07358e-12 4.80546e-12 4.37178e-12 3.77958e-12 3.05315e-12 2.22206e-12 1.32644e-12 4.12838e-13 -4.83299e-13 -1.34665e-12 -2.11909e-12 -2.78398e-12 -2.82305e-12 -4.94769e-12 -2.68015e-13 -1.7611e-12 -4.86288e-12 1.76505e-12 2.29289e-13 6.83013e-13 9.68341e-14 -6.8221e-14 -2.09596e-13 -1.99279e-13 -1.83687e-12 -4.45513e-14 2.09492e-12 -1.09107e-13 4.40185e-12 1.75751e-12 1.14686e-12 2.77483e-14 -1.12738e-12 -2.48999e-12 1.79074e-12 4.86085e-12 4.76589e-12 2.79955e-14 1.01421e-12 -1.4411e-12 3.91605e-12 3.94352e-12 6.09954e-12 1.921e-14 -1.9264e-12 -2.97242e-13 6.74342e-13 1.78387e-12 2.19252e-12 3.25219e-14 3.22383e-13 2.27017e-12 4.71241e-12 -1.90141e-12 -3.6435e-13 3.86554e-14 -1.41975e-10 5.54094e-14 -4.69119e-12 1.8815e-13 1.82434e-12 -4.00239e-13 -1.07854e-12 1.30436e-12 -2.73396e-12 -9.80427e-13 -1.12554e-12 -5.8349e-13 -4.58939e-13 -3.27588e-14 4.24928e-13 9.25929e-13 1.45898e-12 3.20585e-10 2.6238e-12 3.22475e-12 3.82095e-12 4.41366e-12 4.99086e-12 2.07962e-10 6.05388e-12 6.50942e-12 6.87579e-12 7.51754e-12 7.85972e-12 1.5896e-10 -1.84355e-10 1.57431e-12 -2.08406e-12 -4.13952e-12 -1.13521e-11 1.39855e-10 -1.65689e-12 -1.14948e-11 -3.53294e-12 -1.74727e-12 1.1391e-11 1.30943e-10 1.39057e-12 1.14321e-11 4.69266e-12 1.22161e-10 -3.64928e-11 1.07724e-10 -9.42194e-11 8.109e-11 -2.51035e-10 -3.36196e-11 -5.07432e-12 2.33758e-13 3.63796e-11 -1.17154e-10 1.89108e-11 1.43367e-12 1.23358e-11 4.69432e-12 -5.01752e-12 -3.96058e-12 3.37936e-11 -5.99447e-11 -3.7853e-13 -3.97716e-11 -1.8977e-12 -4.4394e-11 -6.45864e-11 -2.23716e-11 -4.59434e-12 1.1195e-10 5.53825e-12 1.99022e-12 4.79434e-12 -8.85941e-11 -5.07793e-12 2.28729e-13 -8.2996e-14 -2.72513e-12 5.54958e-12 9.08942e-11 4.49363e-12 3.87438e-12 -1.9175e-12 -4.19296e-12 2.59614e-13 3.8354e-12 3.18601e-12 -2.17441e-13 -4.87241e-12 1.56926e-10 -1.11656e-10 2.0394e-10 -1.38051e-11 3.18853e-10 -1.23556e-12 -5.80877e-12 -7.52913e-14 2.22944e-12 -8.50904e-11 3.67134e-12 -5.97933e-13 -1.54926e-13 -6.03491e-11 -1.47102e-12 4.40659e-15 4.64556e-12 -1.68386e-12 -2.62517e-12 -3.19734e-14 -2.77004e-12 2.46943e-12 -2.21374e-14 -4.57502e-14 2.42758e-12 -3.04175e-14 -1.93954e-12 -6.76391e-11 -9.29672e-13 8.73655e-14 -7.029e-14 4.69275e-13 -3.09608e-12 -5.32191e-12 -2.51267e-10 3.41602e-11 -7.98969e-11 -2.55709e-14 -1.69482e-10 5.22131e-12 -7.49378e-11 -4.04157e-12 -1.06762e-10 2.42213e-12 -8.89959e-11 -1.21665e-10 -1.5151e-11 7.78245e-13 3.50146e-12 1.25814e-10 -8.12131e-13 -9.05527e-11 -7.64817e-11 -5.15831e-12 -4.42005e-12 -8.21005e-11 -5.08228e-12 -8.6956e-11 -1.49837e-11 7.44187e-12 1.54722e-11 4.9324e-12 -3.15818e-12 -3.90831e-12 -3.82637e-11 4.8775e-12 -9.37573e-13 5.02138e-12 -9.55008e-11 -3.43332e-12 1.05908e-11 1.00951e-11 -6.97085e-12 -7.84604e-12 -7.2634e-11 1.20585e-11 -6.84096e-11 1.34729e-11 -1.79146e-12 1.58198e-11 -4.28978e-12 -8.27823e-11 -6.2893e-12 -5.91871e-11 5.81968e-12 9.3204e-12 5.04725e-12 -5.43462e-11 9.02433e-12 -1.88357e-12 -8.29245e-12 -4.94005e-11 -1.50568e-11 -1.0146e-10 -1.09779e-11 -1.33554e-13 4.20825e-12 -1.78554e-11 -3.93998e-11 -2.26178e-11 2.16007e-13 2.07562e-13 -1.70204e-11 -2.78771e-11 -6.38927e-11 -4.01199e-12 1.61592e-12 -2.87125e-11 6.99083e-12 5.04483e-12 -9.64404e-12 -2.36002e-11 1.63483e-13 -1.87326e-11 -4.63051e-11 -3.46303e-11 -5.31942e-11 4.06267e-12 -4.82227e-12 1.32564e-11 7.27641e-12 -5.36612e-12 3.77921e-12 1.90723e-11 3.13578e-12 6.45393e-12 -1.27315e-11 -1.13699e-11 -3.42987e-11 3.67332e-11 -5.76338e-12 5.07306e-12 -1.01975e-10 2.62981e-12 -1.64419e-11 -2.52126e-12 2.98454e-12 -3.23721e-12 -3.42877e-12 -3.37142e-12 -8.33547e-13 -2.60804e-12 1.37711e-10 -1.03641e-12 1.46976e-14 1.1978e-12 -3.84765e-11 -3.03064e-13 5.07028e-12 6.2989e-12 5.16944e-13 8.48233e-12 5.84385e-11 6.03753e-12 -4.35911e-12 2.98506e-12 -3.28311e-11 -1.15076e-11 3.69938e-11 -9.72246e-14 -1.70039e-13 -5.34346e-14 9.56975e-14 2.16611e-13 -3.80926e-11 1.92203e-12 -4.77418e-12 3.58248e-12 2.02715e-12 -9.72967e-12 1.19255e-11 -6.4803e-12 -5.2255e-12 -3.543e-12 -2.40741e-12 -2.50434e-13 -8.90955e-13 
</DataArray>
<DataArray Name="Strain_13" format="ascii" type="Float64">
0 0 0 0 0 0 0 0 0 0 0 0 0 0 0 0 0 0 0 0 0 0 0 0 0 0 0 0 0 0 0 0 0 0 0 0 0 0 0 0 0 0 0 0 0 0 0 0 0 0 0 0 0 0 0 0 0 0 0 0 0 0 0 0 0 0 0 0 0 0 0 0 0 0 0 0 0 0 0 0 0 0 0 0 0 0 0 0 0 0 0 0 0 0 0 0 0 0 0 0 0 0 0 0 0 0 0 0 0 0 0 0 0 0 0 0 0 0 0 0 0 0 0 0 0 0 0 0 0 0 0 0 0 0 0 0 0 0 0 0 0 0 0 0 0 0 0 0 0 0 0 0 0 0 0 0 0 0 0 0 0 0 0 0 0 0 0 0 0 0 0 0 0 0 0 0 0 0 0 0 0 0 0 0 0 0 0 0 0 0 0 0 0 0 0 0 0 0 0 0 0 0 0 0 0 0 0 0 0 0 0 0 0 0 0 0 0 0 0 0 0 0 0 0 0 0 0 0 0 0 0 0 0 0 0 0 0 0 0 0 0 0 0 0 0 0 0 0 0 0 0 0 0 0 0 0 0 0 0 0 0 0 0 0 0 0 0 0 0 0 0 0 0 0 0 0 0 0 0 0 0 0 0 0 0 0 0 0 0 0 0 0 0 0 0 0 0 0 0 0 0 0 0 0 0 0 0 0 0 0 0 0 0 0 0 0 0 0 0 0 0 0 0 0 0 0 0 0 0 0 0 0 0 0 0 0 
</DataArray>
<DataArray Name="Strain_23" format="ascii" type="Float64">
0 0 0 0 0 0 0 0 0 0 0 0 0 0 0 0 0 0 0 0 0 0 0 0 0 0 0 0 0 0 0 0 0 0 0 0 0 0 0 0 0 0 0 0 0 0 0 0 0 0 0 0 0 0 0 0 0 0 0 0 0 0 0 0 0 0 0 0 0 0 0 0 0 0 0 0 0 0 0 0 0 0 0 0 0 0 0 0 0 0 0 0 0 0 0 0 0 0 0 0 0 0 0 0 0 0 0 0 0 0 0 0 0 0 0 0 0 0 0 0 0 0 0 0 0 0 0 0 0 0 0 0 0 0 0 0 0 0 0 0 0 0 0 0 0 0 0 0 0 0 0 0 0 0 0 0 0 0 0 0 0 0 0 0 0 0 0 0 0 0 0 0 0 0 0 0 0 0 0 0 0 0 0 0 0 0 0 0 0 0 0 0 0 0 0 0 0 0 0 0 0 0 0 0 0 0 0 0 0 0 0 0 0 0 0 0 0 0 0 0 0 0 0 0 0 0 0 0 0 0 0 0 0 0 0 0 0 0 0 0 0 0 0 0 0 0 0 0 0 0 0 0 0 0 0 0 0 0 0 0 0 0 0 0 0 0 0 0 0 0 0 0 0 0 0 0 0 0 0 0 0 0 0 0 0 0 0 0 0 0 0 0 0 0 0 0 0 0 0 0 0 0 0 0 0 0 0 0 0 0 0 0 0 0 0 0 0 0 0 0 0 0 0 0 0 0 0 0 0 0 0 0 0 0 0 0 
</DataArray>
<DataArray Name="Strain_33" format="ascii" type="Float64">