<?xml version="1.0"?>
<VTKFile byte_order="LittleEndian" type="UnstructuredGrid" version="0.1">
<UnstructuredGrid>
<Piece NumberOfCells="336" NumberOfPoints="440">
<PointData>
<DataArray Name="Warping_X" format="ascii" type="Float64">
1.19209e-09 1.00572e-09 9.15612e-10 8.28979e-10 7.45171e-10 6.64671e-10 5.87409e-10 5.13377e-10 4.42568e-10 3.7498e-10 3.10596e-10 2.49363e-10 1.91224e-10 1.36152e-10 8.41241e-11 3.51109e-11 -1.09175e-11 -5.39875e-11 -9.41138e-11 -1.31301e-10 -1.65547e-10 -1.96836e-10 -2.25128e-10 -2.5037e-10 -2.72492e-10 -2.91515e-10 -3.0706e-10 -3.22293e-10 -3.25888e-10 -3.2951e-10 -3.31187e-10 -3.30915e-10 -3.28679e-10 -3.24476e-10 -3.18309e-10 -3.10196e-10 -3.00124e-10 -2.92095e-10 -2.62225e-10 -2.34668e-10 -2.03457e-10 -1.69088e-10 -1.31661e-10 -9.13987e-11 -4.85783e-11 -3.60489e-12 4.31226e-11 6.61172e-11 8.87613e-11 9.80731e-11 1.07328e-10 9.90929e-11 8.99699e-11 6.91165e-11 4.75505e-11 2.80196e-12 -4.09375e-11 -8.31188e-11 -1.23187e-10 -1.60734e-10 -1.95435e-10 -2.27119e-10 -2.55252e-10 -2.85669e-10 -2.94066e-10 -3.04475e-10 -3.12924e-10 -3.19428e-10 -3.23977e-10 -3.26573e-10 -3.27229e-10 -3.25973e-10 -3.22817e-10 -3.19609e-10 -3.05329e-10 -2.9054e-10 -2.72248e-10 -2.50821e-10 -2.26202e-10 -1.98427e-10 -1.67521e-10 -1.33514e-10 -9.64233e-11 -5.62642e-11 -1.30448e-11 3.32201e-11 8.2503e-11 1.34787e-10 1.9007e-10 2.4834e-10 3.09589e-10 3.7382e-10 4.41044e-10 5.1126e-10 5.84455e-10 6.60638e-10 7.39825e-10 8.2221e-10 9.13885e-10 1.00419e-09 -2.81519e-10 -2.71495e-10 -2.67256e-10 -2.69e-10 -2.76691e-10 -3.1017e-10 -3.02261e-10 -2.99958e-10 -3.03206e-10 -3.12067e-10 1.24123e-09 1.00561e-09 9.15587e-10 8.29021e-10 7.45762e-10 6.65611e-10 5.88617e-10 5.14788e-10 4.44116e-10 3.76589e-10 3.12182e-10 2.50864e-10 1.92601e-10 1.37359e-10 8.51054e-11 3.58105e-11 -1.0552e-11 -5.40001e-11 -9.45412e-11 -1.32169e-10 -1.66866e-10 -1.98606e-10 -2.27345e-10 -2.53025e-10 -2.75562e-10 -2.94897e-10 -3.10851e-10 -3.21476e-10 -3.27e-10 -3.3068e-10 -3.32407e-10 -3.32159e-10 -3.29925e-10 -3.25701e-10 -3.19492e-10 -3.11309e-10 -3.01175e-10 -2.8904e-10 -2.66519e-10 -2.38341e-10 -2.06612e-10 -1.7159e-10 -1.33378e-10 -9.21445e-11 -4.80929e-11 -1.42621e-12 4.76643e-11 7.27936e-11 9.80807e-11 1.10815e-10 1.24461e-10 1.13519e-10 1.01913e-10 7.83926e-11 5.45408e-11 7.09991e-12 -3.86826e-11 -8.23846e-11 -1.23649e-10 -1.62163e-10 -1.97665e-10 -2.29976e-10 -2.58803e-10 -2.82321e-10 -2.94919e-10 -3.05417e-10 -3.13957e-10 -3.2052e-10 -3.25102e-10 -3.27707e-10 -3.28348e-10 -3.27055e-10 -3.23859e-10 -3.18913e-10 -3.09102e-10 -2.94121e-10 -2.75762e-10 -2.54181e-10 -2.29377e-10 -2.01388e-10 -1.70239e-10 -1.35956e-10 -9.85559e-11 -5.80594e-11 -1.44883e-11 3.21315e-11 8.1778e-11 1.34438e-10 1.90099e-10 2.48751e-10 3.10388e-10 3.7501e-10 4.42621e-10 5.13233e-10 5.86871e-10 6.63608e-10 7.43613e-10 8.27084e-10 9.14156e-10 1.00447e-09 -2.74714e-10 -2.64685e-10 -2.60564e-10 -2.62125e-10 -2.69731e-10 -3.07158e-10 -2.99401e-10 -2.97131e-10 -3.00279e-10 -3.0891e-10 1.33953e-09 1.00538e-09 9.15561e-10 8.29088e-10 7.45862e-10 6.65784e-10 5.88853e-10 5.15075e-10 4.44445e-10 3.76946e-10 3.12556e-10 2.51244e-10 1.92978e-10 1.37725e-10 8.5452e-11 3.61281e-11 -1.02716e-11 -5.37642e-11 -9.43559e-11 -1.32039e-10 -1.66794e-10 -1.98593e-10 -2.27392e-10 -2.53132e-10 -2.75726e-10 -2.95113e-10 -3.11121e-10 -3.23553e-10 -3.29287e-10 -3.33119e-10 -3.34939e-10 -3.34742e-10 -3.32512e-10 -3.28246e-10 -3.2195e-10 -3.13641e-10 -3.03292e-10 -2.911e-10 -2.66803e-10 -2.38577e-10 -2.06776e-10 -1.71658e-10 -1.33325e-10 -9.19483e-11 -4.77266e-11 -8.57556e-13 4.84679e-11 7.38227e-11 9.93395e-11 1.12333e-10 1.26364e-10 1.15184e-10 1.0341e-10 7.9693e-11 5.56259e-11 7.93169e-12 -3.80819e-11 -8.19835e-11 -1.23419e-10 -1.62078e-10 -1.97699e-10 -2.30102e-10 -2.58997e-10 -2.84026e-10 -2.96638e-10 -3.07404e-10 -3.16116e-10 -3.22798e-10 -3.27448e-10 -3.30069e-10 -3.3068e-10 -3.29319e-10 -3.26005e-10 -3.20857e-10 -3.09386e-10 -2.94374e-10 -2.75991e-10 -2.54382e-10 -2.29545e-10 -2.0152e-10 -1.70333e-10 -1.36008e-10 -9.85624e-11 -5.80186e-11 -1.43994e-11 3.22681e-11 8.19623e-11 1.3467e-10 1.90378e-10 2.49076e-10 3.10759e-10 3.75424e-10 4.43075e-10 5.13724e-10 5.87396e-10 6.64154e-10 7.44152e-10 8.27625e-10 9.1474e-10 1.00505e-09 -2.73997e-10 -2.63964e-10 -2.59841e-10 -2.61397e-10 -2.69001e-10 -3.06847e-10 -2.99086e-10 -2.96813e-10 -2.99957e-10 -3.08586e-10 1.09386e-09 1.00591e-09 9.15741e-10 8.28959e-10 7.4503e-10 6.64463e-10 5.87144e-10 5.1306e-10 4.42211e-10 3.74595e-10 3.10194e-10 2.48956e-10 1.90821e-10 1.3576e-10 8.37526e-11 3.47687e-11 -1.12222e-11 -5.42476e-11 -9.43234e-11 -1.31455e-10 -1.65644e-10 -1.96874e-10 -2.25106e-10 -2.50289e-10 -2.72353e-10 -2.91323e-10 -3.06844e-10 -3.20487e-10 -3.23786e-10 -3.27256e-10 -3.28841e-10 -3.28519e-10 -3.2628e-10 -3.22119e-10 -3.1604e-10 -3.08053e-10 -2.98157e-10 -2.90571e-10 -2.61977e-10 -2.34452e-10 -2.03317e-10 -1.69044e-10 -1.31736e-10 -9.16165e-11 -4.89653e-11 -4.19524e-12 4.22977e-11 6.50717e-11 8.75026e-11 9.65684e-11 1.05445e-10 9.74447e-11 8.84701e-11 6.78047e-11 4.64529e-11 1.95506e-12 -4.15544e-11 -8.35376e-11 -1.23437e-10 -1.6084e-10 -1.95422e-10 -2.2701e-10 -2.55096e-10 -2.84507e-10 -2.9249e-10 -3.02674e-10 -3.10953e-10 -3.17337e-10 -3.21819e-10 -3.24399e-10 -3.25084e-10 -3.23895e-10 -3.2086e-10 -3.17933e-10 -3.05099e-10 -2.90312e-10 -2.72047e-10 -2.5065e-10 -2.26063e-10 -1.98324e-10 -1.67456e-10 -1.3349e-10 -9.6445e-11 -5.63331e-11 -1.31616e-11 3.30557e-11 8.2291e-11 1.34527e-10 1.89763e-10 2.47988e-10 3.09191e-10 3.73378e-10 4.40562e-10 5.10741e-10 5.83904e-10 6.60059e-10 7.39239e-10 8.21727e-10 9.134e-10 1.0036e-09 -2.82198e-10 -2.72179e-10 -2.67943e-10 -2.6969e-10 -2.77384e-10 -3.10442e-10 -3.02538e-10 -3.00238e-10 -3.0349e-10 -3.12353e-10 
</DataArray>
<DataArray Name="Warping_Y" format="ascii" type="Float64">
1.83811e-11 1.10638e-11 9.67894e-12 -1.10579e-11 -9.27336e-12 -5.77234e-12 -1.25912e-12 4.22298e-12 1.05127e-11 1.73638e-11 2.45164e-11 3.17141e-11 3.87726e-11 4.55239e-11 5.17814e-11 5.73557e-11 6.20638e-11 6.57474e-11 6.82757e-11 6.95448e-11 6.94904e-11 6.80958e-11 6.53639e-11 6.13237e-11 5.60266e-11 4.95451e-11 4.21856e-11 3.29887e-11 2.77628e-11 1.94033e-11 1.06208e-11 1.58438e-12 -7.54432e-12 -1.66031e-11 -2.54322e-11 -3.38719e-11 -4.17595e-11 -4.66172e-11 -5.63155e-11 -6.55513e-11 -7.36484e-11 -7.99246e-11 -8.37849e-11 -8.46353e-11 -8.18579e-11 -7.47606e-11 -6.23922e-11 -5.35327e-11 -4.19151e-11 -3.60616e-11 -2.26219e-11 -3.5867e-12 6.02726e-12 2.31418e-11 3.63845e-11 5.63775e-11 6.9823e-11 7.79778e-11 8.17181e-11 8.17977e-11 7.88981e-11 7.36845e-11 6.68915e-11 5.96599e-11 5.58047e-11 4.92985e-11 4.20636e-11 3.42948e-11 2.61858e-11 1.79163e-11 9.65567e-12 1.56001e-12 -6.22044e-12 -1.10699e-11 -1.99979e-11 -2.78058e-11 -3.5363e-11 -4.23876e-11 -4.88177e-11 -5.45691e-11 -5.95581e-11 -6.37001e-11 -6.69054e-11 -6.91002e-11 -7.02298e-11 -7.02773e-11 -6.92327e-11 -6.70711e-11 -6.37827e-11 -5.93778e-11 -5.38587e-11 -4.72365e-11 -3.95591e-11 -3.09013e-11 -2.13887e-11 -1.11722e-11 -5.38646e-13 8.7819e-12 -4.4615e-12 2.50679e-12 -3.16945e-11 -1.2833e-11 6.10105e-12 2.51263e-11 4.42611e-11 -4.92252e-12 2.7718e-12 1.05498e-11 1.84262e-11 2.6415e-11 2.14169e-11 1.21021e-11 1.06555e-11 1.24001e-11 1.38948e-11 1.62577e-11 1.99144e-11 2.45662e-11 3.00105e-11 3.60303e-11 4.2362e-11 4.87464e-11 5.49988e-11 6.09501e-11 6.64118e-11 7.11917e-11 7.51037e-11 7.79864e-11 7.97052e-11 8.01526e-11 7.9262e-11 7.7015e-11 7.34112e-11 6.84635e-11 6.22334e-11 5.48982e-11 4.63535e-11 3.62964e-11 2.83834e-11 1.97617e-11 1.07184e-11 1.41681e-12 -7.97794e-12 -1.73025e-11 -2.63948e-11 -3.50976e-11 -4.32362e-11 -5.05779e-11 -6.26796e-11 -7.27077e-11 -8.15409e-11 -8.86142e-11 -9.32302e-11 -9.47926e-11 -9.26545e-11 -8.60681e-11 -7.3953e-11 -6.47419e-11 -5.20076e-11 -4.34864e-11 -2.35898e-11 2.30987e-12 1.46554e-11 3.32669e-11 4.7283e-11 6.74349e-11 8.05869e-11 8.82166e-11 9.13113e-11 9.0671e-11 8.69912e-11 8.10518e-11 7.34548e-11 6.31281e-11 5.73268e-11 5.05727e-11 4.30745e-11 3.50423e-11 2.66684e-11 1.8135e-11 9.61328e-12 1.26309e-12 -6.77344e-12 -1.4182e-11 -2.38489e-11 -3.2814e-11 -4.12075e-11 -4.91703e-11 -5.6532e-11 -6.31962e-11 -6.90908e-11 -7.41324e-11 -7.82302e-11 -8.1309e-11 -8.33119e-11 -8.42221e-11 -8.40321e-11 -8.27181e-11 -8.02702e-11 -7.66999e-11 -7.20105e-11 -6.62122e-11 -5.93547e-11 -5.15173e-11 -4.27882e-11 -3.33337e-11 -2.37769e-11 -1.45904e-11 -5.43124e-12 1.47722e-12 -3.40301e-11 -1.41649e-11 5.85846e-12 2.59822e-11 4.61474e-11 -6.85456e-12 1.82094e-12 1.06412e-11 1.95586e-11 2.8529e-11 2.74923e-11 1.41945e-11 1.2623e-11 1.39949e-11 1.54286e-11 1.77307e-11 2.1325e-11 2.59146e-11 3.12966e-11 3.72546e-11 4.35259e-11 4.98511e-11 5.60455e-11 6.19404e-11 6.73473e-11 7.20741e-11 7.59346e-11 7.8767e-11 8.04362e-11 8.08343e-11 7.98941e-11 7.75965e-11 7.39408e-11 6.89386e-11 6.26532e-11 5.525e-11 4.66791e-11 3.81267e-11 2.96209e-11 2.05001e-11 1.09231e-11 1.08868e-12 -8.84303e-12 -1.87037e-11 -2.83256e-11 -3.7564e-11 -4.61824e-11 -5.41729e-11 -6.32303e-11 -7.32922e-11 -8.2196e-11 -8.93235e-11 -9.39884e-11 -9.55897e-11 -9.34792e-11 -8.69013e-11 -7.47812e-11 -6.54941e-11 -5.26761e-11 -4.39833e-11 -2.36969e-11 2.61143e-12 1.51302e-11 3.38526e-11 4.79802e-11 6.81786e-11 8.13551e-11 8.89809e-11 9.20534e-11 9.13763e-11 8.76504e-11 8.16456e-11 7.40188e-11 6.67708e-11 6.03732e-11 5.3143e-11 4.51079e-11 3.65448e-11 2.76358e-11 1.85695e-11 9.52377e-12 6.52972e-13 -7.86776e-12 -1.59065e-11 -2.41517e-11 -3.3144e-11 -4.1607e-11 -4.96286e-11 -5.705e-11 -6.37723e-11 -6.97242e-11 -7.48223e-11 -7.89757e-11 -8.21092e-11 -8.41661e-11 -8.51297e-11 -8.49926e-11 -8.37312e-11 -8.13357e-11 -7.78178e-11 -7.31807e-11 -6.7435e-11 -6.06305e-11 -5.28468e-11 -4.41718e-11 -3.4774e-11 -2.5278e-11 -1.61483e-11 -7.37096e-12 -5.99845e-13 -3.43148e-11 -1.43041e-11 5.83209e-12 2.60697e-11 4.63858e-11 -7.07985e-12 1.72297e-12 1.06501e-11 1.96741e-11 2.87723e-11 1.23134e-11 9.0373e-12 7.69847e-12 -1.26542e-11 -1.08099e-11 -7.2453e-12 -2.66858e-12 2.87781e-12 9.23171e-12 1.61463e-11 2.33609e-11 3.06193e-11 3.77372e-11 4.45463e-11 5.08598e-11 5.64882e-11 6.12487e-11 6.49833e-11 6.75617e-11 6.88803e-11 6.88758e-11 6.75316e-11 6.48512e-11 6.08655e-11 5.56208e-11 4.9213e-11 4.18525e-11 3.1363e-11 2.65478e-11 1.87004e-11 1.04368e-11 1.92602e-12 -6.67488e-12 -1.52069e-11 -2.35126e-11 -3.14335e-11 -3.88198e-11 -4.32344e-11 -5.57513e-11 -6.49803e-11 -7.3003e-11 -7.92278e-11 -8.30399e-11 -8.38526e-11 -8.10489e-11 -7.39448e-11 -6.1583e-11 -5.27976e-11 -4.12538e-11 -3.55546e-11 -2.25232e-11 -3.8972e-12 5.57469e-12 2.25809e-11 3.57116e-11 5.56571e-11 6.90765e-11 7.72333e-11 8.0994e-11 8.11095e-11 7.82529e-11 7.31078e-11 6.63196e-11 5.62414e-11 5.2783e-11 4.67702e-11 4.00533e-11 3.28072e-11 2.52229e-11 1.74768e-11 9.73373e-12 2.14553e-12 -5.13369e-12 -9.5436e-12 -1.96826e-11 -2.74924e-11 -3.49734e-11 -4.19418e-11 -4.83119e-11 -5.40056e-11 -5.89373e-11 -6.3023e-11 -6.61729e-11 -6.83131e-11 -6.93887e-11 -6.93827e-11 -6.8285e-11 -6.60705e-11 -6.27294e-11 -5.82718e-11 -5.26999e-11 -4.60246e-11 -3.82936e-11 -2.95813e-11 -2.0013e-11 -9.7392e-12 9.56604e-13 1.03628e-11 -2.47958e-12 4.51021e-12 -3.14474e-11 -1.26825e-11 6.12686e-12 2.50254e-11 4.40597e-11 -4.71662e-12 2.8775e-12 1.05402e-11 1.83011e-11 2.61901e-11 
</DataArray>
<DataArray Name="Warping_Z" format="ascii" type="Float64">
0 0 0 0 0 0 0 0 0 0 0 0 0 0 0 0 0 0 0 0 0 0 0 0 0 0 0 0 0 0 0 0 0 0 0 0 0 0 0 0 0 0 0 0 0 0 0 0 0 0 0 0 0 0 0 0 0 0 0 0 0 0 0 0 0 0 0 0 0 0 0 0 0 0 0 0 0 0 0 0 0 0 0 0 0 0 0 0 0 0 0 0 0 0 0 0 0 0 0 0 0 0 0 0 0 0 0 0 0 0 0 0 0 0 0 0 0 0 0 0 0 0 0 0 0 0 0 0 0 0 0 0 0 0 0 0 0 0 0 0 0 0 0 0 0 0 0 0 0 0 0 0 0 0 0 0 0 0 0 0 0 0 0 0 0 0 0 0 0 0 0 0 0 0 0 0 0 0 0 0 0 0 0 0 0 0 0 0 0 0 0 0 0 0 0 0 0 0 0 0 0 0 0 0 0 0 0 0 0 0 0 0 0 0 0 0 0 0 0 0 0 0 0 0 0 0 0 0 0 0 0 0 0 0 0 0 0 0 0 0 0 0 0 0 0 0 0 0 0 0 0 0 0 0 0 0 0 0 0 0 0 0 0 0 0 0 0 0 0 0 0 0 0 0 0 0 0 0 0 0 0 0 0 0 0 0 0 0 0 0 0 0 0 0 0 0 0 0 0 0 0 0 0 0 0 0 0 0 0 0 0 0 0 0 0 0 0 0 0 0 0 0 0 0 0 0 0 0 0 0 0 0 0 0 0 0 0 0 0 0 0 0 0 0 0 0 0 0 0 0 0 0 0 0 0 0 0 0 0 0 0 0 0 0 0 0 0 0 0 0 0 0 0 0 0 0 0 0 0 0 0 0 0 0 0 0 0 0 0 0 0 0 0 0 0 0 0 0 0 0 0 0 0 0 0 0 0 0 0 0 0 0 0 0 0 0 0 0 0 0 0 0 0 0 0 0 0 0 0 0 0 0 0 0 0 0 0 0 0 0 
</DataArray>
</PointData>
<CellData>
<DataArray Name="MaterialId" format="ascii" type="Float64">
4 3 3 3 3 3 3 3 3 3 3 3 3 3 3 3 3 3 3 3 3 3 3 3 3 3 3 3 1 1 1 1 1 1 1 1 1 1 3 3 3 3 3 1 3 3 3 3 3 1 3 3 3 3 3 1 3 3 3 3 3 1 3 3 1 1 1 1 4 1 3 1 1 1 3 3 3 3 3 1 3 3 3 3 3 4 3 3 3 3 3 4 3 3 3 3 3 4 4 3 3 2 2 4 2 2 2 2 2 4 2 2 2 4 4 4 4 4 4 4 3 1 4 4 4 2 4 2 1 4 4 4 1 4 3 4 4 4 4 4 3 1 4 4 2 1 1 3 3 4 3 3 3 3 1 3 3 1 3 4 4 4 4 4 3 3 3 3 4 2 1 1 4 3 1 3 3 3 1 3 3 1 3 3 1 1 4 3 1 1 1 3 3 4 4 4 1 4 1 4 3 4 3 4 4 2 3 2 4 3 4 4 2 3 4 3 4 2 3 2 3 3 2 4 3 3 2 4 3 3 3 3 3 4 3 4 3 3 2 3 4 3 4 1 3 2 4 3 1 3 4 3 4 4 1 3 4 4 4 1 1 4 4 4 2 3 4 3 3 3 4 1 4 4 4 4 3 3 4 3 1 3 4 3 3 3 3 4 4 3 1 4 3 4 3 3 3 3 3 3 3 4 3 3 3 4 1 3 3 1 3 4 3 3 3 4 4 4 1 1 1 1 1 4 1 1 3 3 3 4 3 3 3 3 3 3 
</DataArray>
<DataArray Name="FiberAngle" format="ascii" type="Float64">
0 0 0 0 0 0 0 0 0 0 0 0 0 0 0 0 0 0 0 0 0 0 0 0 0 0 0 0 0 0 0 0 0 0 0 0 0 0 0 0 0 0 0 0 0 0 0 0 0 0 0 0 0 0 0 0 0 0 0 0 0 0 0 0 0 0 0 0 0 0 0 0 0 0 0 0 0 0 0 0 0 0 0 0 0 0 0 0 0 0 0 0 0 0 0 0 0 0 0 0 0 0 0 0 0 0 0 0 0 0 0 0 0 0 0 0 0 0 0 0 0 0 0 0 0 0 0 0 0 0 0 0 0 0 0 0 0 0 0 0 0 0 0 0 0 0 0 0 0 0 0 0 0 0 0 0 0 0 0 0 0 0 0 0 0 0 0 0 0 0 0 0 0 0 0 0 0 0 0 0 0 0 0 0 0 0 0 0 0 0 0 0 0 0 0 0 0 0 0 0 0 0 0 0 0 0 0 0 0 0 0 0 0 0 0 0 0 0 0 0 0 0 0 0 0 0 0 0 0 0 0 0 0 0 0 0 0 0 0 0 0 0 0 0 0 0 0 0 0 0 0 0 0 0 0 0 0 0 0 0 0 0 0 0 0 0 0 0 0 0 0 0 0 0 0 0 0 0 0 0 0 0 0 0 0 0 0 0 0 0 0 0 0 0 0 0 0 0 0 0 0 0 0 0 0 0 0 0 0 0 0 0 0 0 0 0 0 0 0 0 0 0 0 0 0 0 0 0 0 0 0 0 0 0 0 0 
</DataArray>
<DataArray Name="Strain_11" format="ascii" type="Float64">
-3.32037e-10 -1.5887e-09 -1.49694e-09 -1.44115e-09 -1.387e-09 -1.33481e-09 -1.28273e-09 -1.23053e-09 -1.17828e-09 -1.12605e-09 -1.07384e-09 -1.02166e-09 -9.69527e-10 -9.17412e-10 -8.65302e-10 -8.13193e-10 -7.61085e-10 -7.0898e-10 -6.56876e-10 -6.04774e-10 -5.52676e-10 -5.00585e-10 -4.48479e-10 -3.96402e-10 -3.44247e-10 -2.92482e-10 -2.38366e-10 -1.84952e-10 -7.66508e-11 -4.86504e-11 -1.92704e-11 -4.76926e-11 3.93596e-11 6.87035e-11 9.80819e-11 1.27405e-10 1.57078e-10 -1.86217e-11 3.79239e-10 4.33557e-10 4.87765e-10 5.39906e-10 5.92792e-10 1.04436e-11 6.98979e-10 7.52525e-10 8.06629e-10 8.48002e-10 8.7538e-10 3.9536e-11 9.01865e-10 9.0105e-10 8.93942e-10 8.76729e-10 8.51137e-10 6.86371e-11 7.58256e-10 7.05543e-10 6.53021e-10 6.00595e-10 5.48232e-10 9.77783e-11 4.42643e-10 3.89083e-10 1.90671e-10 1.62816e-10 1.33276e-10 1.26888e-10 -2.84597e-10 4.54086e-11 8.55758e-10 -1.33392e-11 -4.28417e-11 1.56001e-10 -1.74705e-10 -2.28302e-10 -2.82798e-10 -3.34863e-10 -3.87388e-10 1.85128e-10 -4.92324e-10 -5.44817e-10 -5.97331e-10 -6.49868e-10 -7.02429e-10 3.62408e-10 -8.07574e-10 -8.60148e-10 -9.12727e-10 -9.65304e-10 -1.01788e-09 4.18478e-10 -1.12308e-09 -1.17573e-09 -1.22852e-09 -1.28151e-09 -1.33518e-09 4.71417e-10 -2.32351e-10 -1.49901e-09 8.74337e-10 3.58218e-10 3.59355e-10 5.17732e-10 3.62686e-10 3.6443e-10 3.66544e-10 3.60975e-10 -1.56487e-10 5.62535e-10 -1.59915e-10 -1.61676e-10 -1.62539e-10 6.04622e-10 -1.18604e-10 6.44111e-10 -3.80177e-10 6.81502e-10 -1.70462e-10 -1.04943e-09 8.90036e-10 1.02972e-10 7.18476e-10 -3.80163e-10 7.42978e-10 -1.5815e-10 7.5859e-10 -1.54025e-10 -7.0898e-11 7.81961e-10 -1.42195e-10 7.98081e-10 -7.48208e-11 -9.9371e-10 8.90749e-10 -1.08501e-09 8.01422e-10 7.7848e-10 7.42716e-10 5.9235e-10 -1.07047e-09 1.60701e-10 7.18199e-10 -4.80513e-10 3.42527e-10 1.00221e-11 4.53297e-11 8.76214e-10 -4.92002e-10 6.25799e-10 -5.96153e-10 -6.48248e-10 -9.11296e-10 -1.16989e-09 1.90653e-10 3.73517e-10 -7.00361e-10 1.64487e-11 8.58025e-10 4.72676e-10 -4.28062e-10 4.22507e-10 -1.27397e-09 3.64571e-10 -1.49693e-09 -1.27354e-09 -9.09042e-10 -1.49681e-09 -5.80377e-10 3.45793e-10 1.61432e-10 -1.24854e-11 -8.29593e-10 8.33997e-10 1.32504e-10 -1.44256e-09 -1.32731e-09 -1.06563e-09 7.44511e-11 -1.22298e-09 -7.04102e-10 4.53693e-11 6.45794e-10 -7.525e-10 1.62408e-11 -4.15401e-11 -7.76447e-10 7.9744e-10 7.41654e-11 -1.29199e-11 -4.21405e-11 -1.01506e-09 -1.37204e-09 -1.63427e-10 -1.43857e-10 -6.79883e-10 1.0352e-10 -2.25603e-10 -6.52697e-11 -7.243e-10 7.47975e-10 -4.76203e-10 -1.58752e-09 -6.22876e-10 -2.79848e-10 3.36969e-10 -8.56849e-10 3.40528e-10 5.55627e-10 -1.49377e-09 -4.30365e-10 -7.29793e-10 3.44285e-10 -1.62293e-10 -6.73132e-10 6.97733e-10 -5.30523e-10 3.45156e-10 -4.97431e-10 -1.3459e-10 -1.39155e-09 -1.43144e-09 -1.37344e-10 3.37539e-10 4.96467e-10 -9.61243e-10 -1.39371e-10 -5.73437e-10 -1.1178e-09 -2.29004e-10 -3.42763e-10 6.47016e-10 5.36968e-10 -7.799e-10 -2.92283e-10 -8.30135e-10 -2.37246e-10 -1.01344e-09 -1.42755e-10 -1.71332e-10 -6.30135e-10 -1.32394e-09 -9.31249e-10 -7.05564e-11 -3.94413e-10 -1.41118e-10 -9.82175e-10 -2.84842e-10 -4.68589e-11 5.9613e-10 -1.03337e-09 4.39406e-10 -5.24623e-10 -1.32874e-09 7.47402e-11 -1.44893e-09 -1.21825e-09 -1.13721e-09 -1.16203e-09 1.31671e-10 1.60358e-11 3.45885e-10 -1.10563e-09 -8.80557e-10 -1.4258e-10 -8.04666e-10 -1.24417e-09 -3.35817e-10 -5.44068e-10 5.44883e-10 -1.30091e-09 1.26313e-10 -1.36301e-09 -9.38417e-10 -1.43651e-09 -8.83637e-10 -1.58877e-09 -1.22184e-09 -1.52098e-10 8.9311e-10 1.84064e-10 -6.52382e-10 6.91477e-10 -1.58803e-09 -3.88012e-10 4.29993e-10 4.94325e-10 -1.19013e-09 2.67802e-10 -1.58885e-09 1.85101e-10 -3.2963e-10 -1.38034e-09 3.40399e-10 -1.27522e-09 8.11345e-10 -1.17088e-09 -1.11889e-09 -1.06696e-09 -4.39831e-10 -9.6317e-10 5.15349e-10 -8.59449e-10 -8.07636e-10 -7.55853e-10 3.39164e-10 1.04058e-10 -6.00698e-10 -5.49045e-10 -6.92211e-11 -4.45857e-10 6.57379e-10 -4.39952e-10 -1.58863e-09 -1.49747e-09 -1.44078e-09 -1.38264e-09 2.74115e-10 -1.79587e-11 1.08672e-11 3.97109e-11 6.85726e-11 9.74642e-11 -1.12157e-10 1.5552e-10 1.78789e-10 3.6424e-10 -7.55001e-10 4.85841e-10 -1.4682e-10 5.88932e-10 6.40607e-10 6.92243e-10 7.43629e-10 7.93997e-10 8.31265e-10 
</DataArray>
<DataArray Name="Strain_22" format="ascii" type="Float64">
-2.40474e-10 -8.877e-10 -8.46593e-10 -8.09513e-10 -7.82572e-10 -7.52772e-10 -7.23439e-10 -6.93973e-10 -6.64616e-10 -6.35263e-10 -6.05923e-10 -5.76592e-10 -5.47268e-10 -5.17954e-10 -4.88659e-10 -4.59383e-10 -4.30125e-10 -4.00884e-10 -3.71658e-10 -3.42443e-10 -3.13237e-10 -2.84029e-10 -2.54849e-10 -2.25569e-10 -1.96662e-10 -1.66061e-10 -1.43233e-10 -1.00588e-10 -7.95115e-11 -4.78569e-11 -1.91567e-11 -4.78216e-11 3.93247e-11 6.85634e-11 9.77462e-11 1.27222e-10 1.55612e-10 -1.85738e-11 2.08845e-10 2.50899e-10 2.74216e-10 3.05105e-10 3.34218e-10 1.04395e-11 3.9304e-10 4.22136e-10 4.52765e-10 4.75087e-10 4.91147e-10 3.95368e-11 5.25973e-10 5.27515e-10 5.10573e-10 4.94852e-10 4.7805e-10 6.86337e-11 4.25191e-10 3.96563e-10 3.67681e-10 3.38752e-10 3.10044e-10 9.77297e-11 2.56553e-10 2.14518e-10 1.94074e-10 1.6145e-10 1.33183e-10 1.26972e-10 -2.04984e-10 4.54285e-11 4.82243e-10 -1.31568e-11 -4.19589e-11 1.55858e-10 -9.50002e-11 -1.37652e-10 -1.60716e-10 -1.91616e-10 -2.20791e-10 1.83635e-10 -2.79854e-10 -3.09366e-10 -3.38873e-10 -3.6838e-10 -3.97887e-10 2.59959e-10 -4.56914e-10 -4.86434e-10 -5.15958e-10 -5.45485e-10 -5.75014e-10 3.05303e-10 -6.34064e-10 -6.6357e-10 -6.93016e-10 -7.22501e-10 -7.51573e-10 3.40337e-10 -1.65551e-10 -8.4294e-10 4.89719e-10 2.02573e-10 2.03873e-10 3.7802e-10 2.06354e-10 2.06968e-10 2.07926e-10 2.05323e-10 -8.83534e-11 4.19263e-10 -9.06936e-11 -9.13377e-11 -9.41024e-11 4.62018e-10 -8.92699e-11 5.06389e-10 -2.67344e-10 5.51636e-10 -1.31941e-10 -7.38386e-10 4.89312e-10 1.03162e-10 5.94184e-10 -2.78405e-10 6.23847e-10 -8.97137e-11 6.29295e-10 -8.87849e-11 -7.38063e-11 6.02269e-10 -8.39047e-11 5.31879e-10 -7.56172e-11 -7.06022e-10 4.88776e-10 -7.82962e-10 5.31981e-10 5.98003e-10 6.31094e-10 4.80536e-10 -6.0454e-10 1.60586e-10 6.34604e-10 -3.41041e-10 1.9297e-10 1.01548e-11 4.53181e-11 4.88154e-10 -2.76443e-10 5.27604e-10 -3.35494e-10 -3.65032e-10 -5.14991e-10 -6.61628e-10 1.88989e-10 2.07158e-10 -3.94589e-10 1.63074e-11 4.80496e-10 3.52003e-10 -3.16283e-10 3.15324e-10 -8.66751e-10 2.7068e-10 -8.35472e-10 -7.21412e-10 -5.13055e-10 -8.39507e-10 -4.15187e-10 1.95146e-10 1.61291e-10 -1.27368e-11 -6.0662e-10 4.68554e-10 1.32604e-10 -8.1317e-10 -7.54373e-10 -6.02103e-10 7.44576e-11 -6.94266e-10 -3.96616e-10 4.53804e-11 3.6363e-10 -4.24175e-10 1.62456e-11 -4.18854e-11 -5.72372e-10 4.48707e-10 7.42624e-11 -1.28549e-11 -4.22723e-11 -5.74549e-10 -7.84086e-10 -1.23947e-10 -8.48927e-11 -4.89651e-10 1.03478e-10 -1.57674e-10 -6.88565e-11 -5.37432e-10 4.19861e-10 -3.53947e-10 -8.93881e-10 -4.65537e-10 -1.96053e-10 1.94761e-10 -4.83412e-10 1.92371e-10 4.35069e-10 -8.36905e-10 -3.042e-10 -5.26826e-10 1.93892e-10 -8.73383e-11 -5.01804e-10 3.91682e-10 -3.7805e-10 1.99484e-10 -2.79293e-10 -7.92802e-11 -7.79295e-10 -8.12892e-10 -7.72835e-11 1.99176e-10 2.79585e-10 -5.42719e-10 -7.80533e-11 -4.28718e-10 -6.31837e-10 -1.39031e-10 -1.9239e-10 3.63127e-10 3.02641e-10 -5.63898e-10 -1.60515e-10 -6.00861e-10 -1.43315e-10 -5.72401e-10 -8.42966e-11 -9.24281e-11 -4.52413e-10 -7.51948e-10 -6.74353e-10 -7.398e-11 -2.20814e-10 -7.90468e-11 -7.10826e-10 -1.56201e-10 -4.70992e-11 3.34349e-10 -7.47055e-10 2.56851e-10 -3.91475e-10 -9.05314e-10 7.46593e-11 -8.07807e-10 -8.34582e-10 -8.18546e-10 -8.02669e-10 1.32073e-10 1.62276e-11 2.00928e-10 -7.70517e-10 -6.37691e-10 -8.02626e-11 -4.53786e-10 -8.85728e-10 -1.8855e-10 -3.0597e-10 3.06185e-10 -9.22643e-10 1.26777e-10 -9.43886e-10 -6.73324e-10 -9.3934e-10 -6.40231e-10 -8.87556e-10 -6.91484e-10 -8.57295e-11 5.07552e-10 1.88144e-10 -3.67198e-10 6.13e-10 -8.89241e-10 -2.1732e-10 2.52903e-10 2.74934e-10 -8.53047e-10 1.98641e-10 -8.94063e-10 1.88368e-10 -2.30493e-10 -7.83737e-10 1.97997e-10 -7.24207e-10 4.55312e-10 -6.64286e-10 -6.34316e-10 -6.04402e-10 -2.50371e-10 -5.44746e-10 3.91439e-10 -4.85293e-10 -4.55662e-10 -4.26103e-10 2.00156e-10 1.03797e-10 -3.37846e-10 -3.08551e-10 -7.01821e-11 -2.5012e-10 5.74271e-10 -2.46969e-10 -8.89244e-10 -8.40247e-10 -9.32841e-10 -9.32975e-10 2.03667e-10 -1.81671e-11 1.0766e-11 3.97351e-11 6.8711e-11 9.77127e-11 -8.41198e-11 1.55552e-10 1.83228e-10 2.02181e-10 -4.27397e-10 2.70901e-10 -8.27499e-11 3.31252e-10 3.60569e-10 3.89745e-10 4.18558e-10 4.48628e-10 4.69501e-10 
</DataArray>
<DataArray Name="Strain_12" format="ascii" type="Float64">
4.0511e-11 -1.62717e-12 -6.84822e-12 7.65393e-12 -4.44362e-12 -1.33174e-12 -8.62201e-13 -1.5724e-12 -1.85121e-12 -2.10736e-12 -2.38626e-12 -2.63216e-12 -2.83652e-12 -3.00992e-12 -3.1586e-12 -3.2807e-12 -3.3721e-12 -3.42583e-12 -3.43816e-12 -3.40593e-12 -3.32715e-12 -3.19852e-12 -3.02782e-12 -2.72686e-12 -2.80114e-12 -1.40063e-12 -3.04824e-12 -3.97977e-13 -4.95639e-13 -2.13173e-16 -1.84022e-14 5.18531e-13 -4.14605e-14 -4.45557e-14 -8.30832e-15 1.94742e-14 -3.58763e-13 -1.68066e-13 3.10826e-13 -3.38259e-12 -1.67932e-12 -2.59009e-12 -2.40112e-12 -5.83783e-14 -2.26187e-12 -9.17181e-13 3.47835e-14 4.55728e-12 1.07781e-11 -7.11681e-14 1.17193e-11 -9.69688e-12 -1.71993e-11 -1.23433e-11 -6.30906e-12 -7.83262e-14 1.12691e-12 2.95411e-12 3.35935e-12 3.33535e-12 3.53068e-12 -3.19082e-14 4.44235e-12 -2.89902e-13 -2.17942e-12 2.98212e-13 -2.73322e-14 -3.14009e-13 3.12596e-11 3.72936e-14 -1.16383e-11 2.57099e-14 2.36624e-14 1.14232e-12 4.87163e-13 2.14492e-12 1.02464e-12 2.11085e-12 1.99415e-12 -4.45177e-12 2.42202e-12 2.59473e-12 2.75939e-12 2.91372e-12 3.04827e-12 2.20064e-10 3.26491e-12 3.35086e-12 3.41952e-12 3.47481e-12 3.51387e-12 6.08453e-11 3.47988e-12 3.40598e-12 3.19326e-12 2.09479e-12 1.31241e-12 5.95636e-11 2.36385e-11 1.20365e-11 -1.5951e-11 8.89671e-12 -3.42516e-12 6.71647e-11 -6.55627e-13 3.71618e-12 -9.13858e-12 7.43596e-13 2.36989e-12 7.79488e-11 7.12033e-13 -2.4486e-12 6.39016e-12 8.97842e-11 1.84355e-11 9.95787e-11 -3.59838e-11 1.01928e-10 8.75475e-11 9.88443e-11 -1.06933e-11 7.78692e-14 8.45514e-11 4.89322e-11 5.7693e-11 -6.92146e-13 2.62974e-11 -6.55649e-12 4.75064e-13 -4.97887e-12 -1.63076e-12 -1.5309e-11 -1.35562e-12 1.03621e-10 7.70182e-12 -1.29032e-10 3.85935e-11 6.43097e-11 3.56187e-11 -9.61736e-11 3.52238e-12 -4.88289e-14 -1.00603e-11 -5.0225e-11 -7.30474e-13 -3.1766e-14 4.3912e-14 1.46088e-11 5.93006e-13 -9.87245e-11 1.09105e-12 1.3586e-12 -3.38332e-12 4.29194e-12 4.05509e-12 -1.14938e-12 1.64666e-12 6.72021e-14 1.06514e-11 -6.88228e-11 5.72248e-11 -6.66607e-11 5.47268e-11 -2.21818e-10 7.54552e-12 5.25102e-12 2.8633e-12 3.47712e-13 -6.50395e-11 -3.09054e-12 -1.14356e-12 5.35345e-14 1.05197e-10 8.34225e-12 2.86303e-13 -9.18301e-12 -1.47489e-12 3.74086e-12 6.75059e-14 -2.86852e-12 -2.08912e-12 6.82491e-14 -2.47113e-12 1.95371e-12 6.59967e-14 3.35701e-13 1.02352e-10 5.72422e-12 3.06079e-14 1.88484e-13 -5.039e-13 -3.63749e-12 1.26894e-12 -8.6161e-11 1.73839e-12 -7.98843e-11 1.24795e-14 -1.69046e-11 1.39343e-12 9.82369e-11 2.34794e-12 6.53524e-11 -1.20811e-12 8.70184e-11 -2.20392e-11 3.63607e-12 2.5592e-12 3.08792e-12 -8.76551e-11 -1.00068e-11 -4.29795e-11 -8.71592e-11 9.01002e-13 -1.67135e-12 9.30592e-11 1.98738e-12 -5.75955e-11 -3.68923e-12 -6.45944e-13 -3.93476e-12 2.46653e-12 1.01019e-11 -2.03345e-12 3.38014e-12 2.3537e-12 3.16492e-12 7.70584e-13 8.03159e-11 4.0372e-12 3.92541e-12 3.08239e-14 1.53333e-12 -1.73107e-12 -9.42469e-11 1.19245e-12 -1.0104e-10 -4.61837e-12 3.45401e-12 3.66359e-12 1.93755e-12 -7.25054e-11 5.20234e-12 -1.13761e-10 -1.59339e-12 -1.09185e-14 -7.91919e-13 -1.19525e-10 -8.33634e-13 -2.8648e-13 1.14619e-12 -1.24689e-10 7.03394e-12 7.30825e-11 3.82892e-11 3.70599e-14 -9.28251e-12 6.92993e-11 -1.31915e-10 8.17123e-11 2.21548e-14 3.5823e-14 -9.65446e-12 9.16235e-11 -1.07549e-10 2.10908e-12 2.25942e-12 -1.26866e-10 1.8986e-14 8.4037e-13 1.23045e-12 -1.05733e-10 -4.39385e-14 -5.97624e-11 1.061e-10 -4.21168e-11 1.06525e-10 -5.61715e-14 4.49255e-12 7.26334e-12 1.71642e-11 5.35667e-12 -1.7065e-12 -5.36604e-11 -1.31968e-12 1.20795e-13 -6.5999e-12 -3.81198e-13 -1.32246e-10 2.66571e-11 4.77312e-12 2.30087e-12 -2.92895e-11 2.46889e-12 1.08359e-11 -2.77286e-12 -7.18792e-13 -3.28098e-12 -3.54788e-12 -3.63988e-12 2.24239e-12 -3.55498e-12 -7.76372e-11 -3.13208e-12 -2.81873e-12 -2.46442e-12 -1.56223e-12 -8.16414e-15 -1.33279e-12 -9.8388e-13 1.40567e-12 -3.6472e-13 -8.82505e-11 3.84852e-13 1.47133e-12 -1.34456e-12 3.53229e-11 2.40696e-11 -2.64307e-11 -3.29431e-14 -5.84014e-14 -4.48433e-14 -4.13064e-14 -9.52321e-14 -1.85783e-11 -3.55124e-14 -4.93211e-12 7.2349e-13 3.16354e-12 -2.94689e-13 -7.12111e-12 -1.8026e-12 -2.29559e-12 -2.90262e-12 -3.45815e-12 -6.58782e-12 -9.0763e-12 
</DataArray>
<DataArray Name="Strain_13" format="ascii" type="Float64">
0 0 0 0 0 0 0 0 0 0 0 0 0 0 0 0 0 0 0 0 0 0 0 0 0 0 0 0 0 0 0 0 0 0 0 0 0 0 0 0 0 0 0 0 0 0 0 0 0 0 0 0 0 0 0 0 0 0 0 0 0 0 0 0 0 0 0 0 0 0 0 0 0 0 0 0 0 0 0 0 0 0 0 0 0 0 0 0 0 0 0 0 0 0 0 0 0 0 0 0 0 0 0 0 0 0 0 0 0 0 0 0 0 0 0 0 0 0 0 0 0 0 0 0 0 0 0 0 0 0 0 0 0 0 0 0 0 0 0 0 0 0 0 0 0 0 0 0 0 0 0 0 0 0 0 0 0 0 0 0 0 0 0 0 0 0 0 0 0 0 0 0 0 0 0 0 0 0 0 0 0 0 0 0 0 0 0 0 0 0 0 0 0 0 0 0 0 0 0 0 0 0 0 0 0 0 0 0 0 0 0 0 0 0 0 0 0 0 0 0 0 0 0 0 0 0 0 0 0 0 0 0 0 0 0 0 0 0 0 0 0 0 0 0 0 0 0 0 0 0 0 0 0 0 0 0 0 0 0 0 0 0 0 0 0 0 0 0 0 0 0 0 0 0 0 0 0 0 0 0 0 0 0 0 0 0 0 0 0 0 0 0 0 0 0 0 0 0 0 0 0 0 0 0 0 0 0 0 0 0 0 0 0 0 0 0 0 0 0 0 0 0 0 0 0 0 0 0 0 0 0 0 0 0 0 0 
</DataArray>
<DataArray Name="Strain_23" format="ascii" type="Float64">
0 0 0 0 0 0 0 0 0 0 0 0 0 0 0 0 0 0 0 0 0 0 0 0 0 0 0 0 0 0 0 0 0 0 0 0 0 0 0 0 0 0 0 0 0 0 0 0 0 0 0 0 0 0 0 0 0 0 0 0 0 0 0 0 0 0 0 0 0 0 0 0 0 0 0 0 0 0 0 0 0 0 0 0 0 0 0 0 0 0 0 0 0 0 0 0 0 0 0 0 0 0 0 0 0 0 0 0 0 0 0 0 0 0 0 0 0 0 0 0 0 0 0 0 0 0 0 0 0 0 0 0 0 0 0 0 0 0 0 0 0 0 0 0 0 0 0 0 0 0 0 0 0 0 0 0 0 0 0 0 0 0 0 0 0 0 0 0 0 0 0 0 0 0 0 0 0 0 0 0 0 0 0 0 0 0 0 0 0 0 0 0 0 0 0 0 0 0 0 0 0 0 0 0 0 0 0 0 0 0 0 0 0 0 0 0 0 0 0 0 0 0 0 0 0 0 0 0 0 0 0 0 0 0 0 0 0 0 0 0 0 0 0 0 0 0 0 0 0 0 0 0 0 0 0 0 0 0 0 0 0 0 0 0 0 0 0 0 0 0 0 0 0 0 0 0 0 0 0 0 0 0 0 0 0 0 0 0 0 0 0 0 0 0 0 0 0 0 0 0 0 0 0 0 0 0 0 0 0 0 0 0 0 0 0 0 0 0 0 0 0 0 0 0 0 0 0 0 0 0 0 0 0 0 0 0 
</DataArray>
<DataArray Name="Strain_33" format="ascii" type="Float64">