<?xml version="1.0"?>
<VTKFile byte_order="LittleEndian" type="UnstructuredGrid" version="0.1">
<UnstructuredGrid>
<Piece NumberOfCells="100" NumberOfPoints="121">
<PointData>
<DataArray Name="Warping_X" format="ascii" type="Float64">
0.0796082 0.0201327 0.0582397 0.0415679 0.0296587 0.022514 0.000134063 0.0257207 0.0265149 0.0225152 0.0137215 0.0596096 0.00251544 0.0096601 0.0215693 0.0382411 0.0732237 0.0820414 0.0860412 0.0852229 0.0638206 0.0471538 0.0352462 0.028102 0.0646002 0.0479418 0.0360393 0.0288961 0.0606005 0.0439421 0.0320395 0.0248964 0.0518214 0.0351546 0.023247 0.0161028 0.0796082 0.022514 0.0296587 0.0415679 0.0582397 0.0596096 0.0852229 0.0860412 0.0820414 0.0732237 0.0382411 0.0215693 0.0096601 0.00251544 0.028102 0.0352462 0.0471538 0.0638206 0.0288961 0.0360393 0.0479418 0.0646002 0.0248964 0.0320395 0.0439421 0.0606005 0.0161028 0.023247 0.0351546 0.0518214 -0.139682 -0.0182717 -0.0414538 -0.0694138 -0.102155 -0.0799937 -0.137292 -0.13012 -0.118165 -0.10143 -0.042439 -0.00967302 0.0182814 0.0414034 0.0198561 0.00317558 -0.00874028 -0.0158889 -0.00327126 -0.0199887 -0.0319143 -0.039069 -0.0311982 -0.0479221 -0.0598639 -0.0670265 -0.0639127 -0.0806441 -0.092597 -0.099766 -0.0799937 0.0414034 0.0182814 -0.00967302 -0.042439 -0.10143 -0.118165 -0.13012 -0.137292 -0.0158889 -0.00874028 0.00317558 0.0198561 -0.039069 -0.0319143 -0.0199887 -0.00327126 -0.0670265 -0.0598639 -0.0479221 -0.0311982 -0.099766 -0.092597 -0.0806441 -0.0639127 
</DataArray>
<DataArray Name="Warping_Y" format="ascii" type="Float64">
-0.0394509 1.22058e-13 -0.0316066 -0.0237175 -0.0158134 -0.00790675 6.11539e-14 1.09888e-13 9.7704e-14 8.55218e-14 7.33374e-14 0.0794481 0.0159062 0.0318123 0.0477158 0.0636044 0.0557712 0.031928 0.00806921 -0.0157739 -0.0125907 -0.00943401 -0.00628803 -0.00314395 0.00645987 0.00485225 0.00323669 0.00161853 0.0255379 0.0191461 0.0127622 0.00638091 0.0445884 0.0334323 0.0222869 0.0111434 0.0394509 0.00790675 0.0158134 0.0237175 0.0316066 -0.0794481 0.0157739 -0.00806921 -0.031928 -0.0557712 -0.0636044 -0.0477158 -0.0318123 -0.0159062 0.00314395 0.00628803 0.00943401 0.0125907 -0.00161853 -0.00323669 -0.00485225 -0.00645987 -0.00638091 -0.0127622 -0.0191461 -0.0255379 -0.0111434 -0.0222869 -0.0334323 -0.0445884 -1.23957e-14 -1.29874e-13 -2.01135e-13 -1.83531e-13 -1.09237e-13 0.199181 0.039853 0.079708 0.119562 0.159397 0.175438 0.151523 0.127561 0.10356 0.0827981 0.062096 0.0413969 0.020698 0.102021 0.0764936 0.0509878 0.0254918 0.121197 0.0908751 0.0605722 0.0302834 0.140318 0.105224 0.0701439 0.0350704 -0.199181 -0.10356 -0.127561 -0.151523 -0.175438 -0.159397 -0.119562 -0.079708 -0.039853 -0.020698 -0.0413969 -0.062096 -0.0827981 -0.0254918 -0.0509878 -0.0764936 -0.102021 -0.0302834 -0.0605722 -0.0908751 -0.121197 -0.0350704 -0.0701439 -0.105224 -0.140318 
</DataArray>
<DataArray Name="Warping_Z" format="ascii" type="Float64">
0 0 0 0 0 0 0 0 0 0 0 0 0 0 0 0 0 0 0 0 0 0 0 0 0 0 0 0 0 0 0 0 0 0 0 0 0 0 0 0 0 0 0 0 0 0 0 0 0 0 0 0 0 0 0 0 0 0 0 0 0 0 0 0 0 0 0 0 0 0 0 0 0 0 0 0 0 0 0 0 0 0 0 0 0 0 0 0 0 0 0 0 0 0 0 0 0 0 0 0 0 0 0 0 0 0 0 0 0 0 0 0 0 0 0 0 0 0 0 0 0 
</DataArray>
</PointData>
<CellData>
<DataArray Name="MaterialId" format="ascii" type="Float64">
1 1 1 1 1 1 1 1 1 1 1 1 1 1 1 1 1 1 1 1 1 1 1 1 1 1 1 1 1 1 1 1 1 1 1 1 1 1 1 1 1 1 1 1 1 1 1 1 1 1 2 2 2 2 2 2 2 2 2 2 2 2 2 2 2 2 2 2 2 2 2 2 2 2 2 2 2 2 2 2 2 2 2 2 2 2 2 2 2 2 2 2 2 2 2 2 2 2 2 2 
</DataArray>
<DataArray Name="FiberAngle" format="ascii" type="Float64">
0 0 0 0 0 0 0 0 0 0 0 0 0 0 0 0 0 0 0 0 0 0 0 0 0 0 0 0 0 0 0 0 0 0 0 0 0 0 0 0 0 0 0 0 0 0 0 0 0 0 0 0 0 0 0 0 0 0 0 0 0 0 0 0 0 0 0 0 0 0 0 0 0 0 0 0 0 0 0 0 0 0 0 0 0 0 0 0 0 0 0 0 0 0 0 0 0 0 0 0 
</DataArray>
<DataArray Name="Strain_11" format="ascii" type="Float64">
0.559773 0.079898 -0.399972 -0.879842 -1.35972 0.558335 0.0783813 -0.399972 -0.878325 -1.35828 0.558667 0.0790528 -0.399972 -0.878997 -1.35861 0.558772 0.0793589 -0.399972 -0.879303 -1.35872 0.558798 0.0794153 -0.399972 -0.879359 -1.35874 0.558798 0.0794153 -0.399972 -0.879359 -1.35874 0.558772 0.0793589 -0.399972 -0.879303 -1.35872 0.558667 0.0790528 -0.399972 -0.878997 -1.35861 0.558335 0.0783813 -0.399972 -0.878325 -1.35828 0.559773 0.079898 -0.399972 -0.879842 -1.35972 -1.82956 -2.31247 -2.79407 -3.27402 -3.7536 -1.83894 -2.31458 -2.79302 -3.27182 -3.7519 -1.83971 -2.31691 -2.79416 -3.27275 -3.75221 -1.84023 -2.31771 -2.79536 -3.27363 -3.75246 -1.8405 -2.31811 -2.79587 -3.27404 -3.75261 -1.8405 -2.31811 -2.79587 -3.27404 -3.75261 -1.84023 -2.31771 -2.79536 -3.27363 -3.75246 -1.83971 -2.31691 -2.79416 -3.27275 -3.75221 -1.83894 -2.31458 -2.79302 -3.27182 -3.7519 -1.82956 -2.31247 -2.79407 -3.27402 -3.7536 
</DataArray>
<DataArray Name="Strain_22" format="ascii" type="Float64">
0.551376 0.078697 -0.399972 -0.878641 -1.35132 0.55229 0.0774521 -0.399972 -0.877396 -1.35223 0.552503 0.076521 -0.399972 -0.876465 -1.35245 0.552537 0.0762959 -0.399972 -0.87624 -1.35248 0.552535 0.076271 -0.399972 -0.876215 -1.35248 0.552535 0.076271 -0.399972 -0.876215 -1.35248 0.552537 0.0762959 -0.399972 -0.87624 -1.35248 0.552503 0.076521 -0.399972 -0.876465 -1.35245 0.55229 0.0774521 -0.399972 -0.877396 -1.35223 0.551376 0.078697 -0.399972 -0.878641 -1.35132 -1.83028 -2.31507 -2.79327 -3.2723 -3.74522 -1.82953 -2.31148 -2.79249 -3.27081 -3.74645 -1.83013 -2.31025 -2.79043 -3.26913 -3.74667 -1.83025 -2.30974 -2.78924 -3.26812 -3.74643 -1.83021 -2.30949 -2.78876 -3.26769 -3.74617 -1.83021 -2.30949 -2.78876 -3.26769 -3.74617 -1.83025 -2.30974 -2.78924 -3.26812 -3.74643 -1.83013 -2.31025 -2.79043 -3.26913 -3.74667 -1.82953 -2.31148 -2.79249 -3.27081 -3.74645 -1.83028 -2.31507 -2.79327 -3.2723 -3.74522 
</DataArray>
<DataArray Name="Strain_12" format="ascii" type="Float64">
-0.00389491 0.00252261 0.0027443 0.00252256 -0.00389483 -0.00195536 0.000580889 0.00274843 0.000580966 -0.00195518 -0.000399562 4.23848e-05 0.000713922 4.24899e-05 -0.000399437 -3.25484e-05 -6.9512e-06 7.87403e-05 -6.88863e-06 -3.24804e-05 5.17381e-06 -3.87057e-06 -2.6909e-06 -3.8512e-06 5.1949e-06 -5.17381e-06 3.87057e-06 2.6909e-06 3.8512e-06 -5.1949e-06 3.25484e-05 6.9512e-06 -7.87403e-05 6.88863e-06 3.24804e-05 0.000399562 -4.23848e-05 -0.000713922 -4.24899e-05 0.000399437 0.00195536 -0.000580889 -0.00274843 -0.000580966 0.00195518 0.00389491 -0.00252261 -0.0027443 -0.00252256 0.00389483 0.0194863 0.0061928 0.00302272 0.00181896 -0.00441136 0.0110813 0.0111435 0.00580752 0.000688234 -0.0024652 0.00698706 0.00734763 0.00492545 0.00128186 -0.000321144 0.00416154 0.00406431 0.00293489 0.00134908 0.0003283 0.00138099 0.00130724 0.000980412 0.000538678 0.000189776 -0.00138099 -0.00130724 -0.000980412 -0.000538678 -0.000189776 -0.00416154 -0.00406431 -0.00293489 -0.00134908 -0.0003283 -0.00698706 -0.00734763 -0.00492545 -0.00128186 0.000321144 -0.0110813 -0.0111435 -0.00580752 -0.000688234 0.0024652 -0.0194863 -0.0061928 -0.00302272 -0.00181896 0.00441136 
</DataArray>
<DataArray Name="Strain_13" format="ascii" type="Float64">
0 0 0 0 0 0 0 0 0 0 0 0 0 0 0 0 0 0 0 0 0 0 0 0 0 0 0 0 0 0 0 0 0 0 0 0 0 0 0 0 0 0 0 0 0 0 0 0 0 0 0 0 0 0 0 0 0 0 0 0 0 0 0 0 0 0 0 0 0 0 0 0 0 0 0 0 0 0 0 0 0 0 0 0 0 0 0 0 0 0 0 0 0 0 0 0 0 0 0 0 
</DataArray>
<DataArray Name="Strain_23" format="ascii" type="Float64">
0 0 0 0 0 0 0 0 0 0 0 0 0 0 0 0 0 0 0 0 0 0 0 0 0 0 0 0 0 0 0 0 0 0 0 0 0 0 0 0 0 0 0 0 0 0 0 0 0 0 0 0 0 0 0 0 0 0 0 0 0 0 0 0 0 0 0 0 0 0 0 0 0 0 0 0 0 0 0 0 0 0 0 0 0 0 0 0 0 0 0 0 0 0 0 0 0 0 0 0 
</DataArray>
<DataArray Name="Strain_33" format="ascii" type="Float64">
1 1 1 1 1 1 1 1 1 1 1 1 1 1 1 1 1 1 1 1 1 1 1 1 1 1 1 1 1 1 1 1 1 1 1 1 1 1 1 1 1 1 1 1 1 1 1 1 1 1 1 1 1 1 1 1 1 1 1 1 1 1 1 1 1 1 1 1 1 1 1 1 1 1 1 1 1 1 1 1 1 1 1 1 1 1 1 1 1 1 1 1 1 1 1 1 1 1 1 1 
</DataArray>
<DataArray Name="Stress_11" format="ascii" type="Float64">
105.291 38.8414 -27.7739 -94.3891 -160.839 105.156 38.6383 -27.7739 -94.1861 -160.704 105.199 38.687 -27.7739 -94.2348 -160.747 105.212 38.7148 -27.7739 -94.2626 -160.76 105.215 38.7203 -27.7739 -94.2681 -160.762 105.215 38.7203 -27.7739 -94.2681 -160.762 105.212 38.7148 -27.7739 -94.2626 -160.76 105.199 38.687 -27.7739 -94.2348 -160.747 105.156 38.6383 -27.7739 -94.1861 -160.704 105.291 38.8414 -27.7739 -94.3891 -160.839 -0.00226348 -0.0029347 -0.00360265 -0.004269 -0.00493322 -0.00227369 -0.00293605 -0.00360127 -0.00426614 -0.00493168 -0.00227471 -0.00293831 -0.00360196 -0.00426671 -0.00493209 -0.00227533 -0.00293905 -0.00360296 -0.00426739 -0.0049323 -0.00227562 -0.00293943 -0.0036034 -0.00426773 -0.00493239 -0.00227562 -0.00293943 -0.0036034 -0.00426773 -0.00493239 -0.00227533 -0.00293905 -0.00360296 -0.00426739 -0.0049323 -0.00227471 -0.00293831 -0.00360196 -0.00426671 -0.00493209 -0.00227369 -0.00293605 -0.00360127 -0.00426614 -0.00493168 -0.00226348 -0.0029347 -0.00360265 -0.004269 -0.00493322 
</DataArray>
<DataArray Name="Stress_22" format="ascii" type="Float64">
104.591 38.7413 -27.7739 -94.2891 -160.139 104.653 38.5608 -27.7739 -94.1086 -160.2 104.686 38.476 -27.7739 -94.0238 -160.233 104.692 38.4595 -27.7739 -94.0073 -160.24 104.693 38.4583 -27.7739 -94.0061 -160.241 104.693 38.4583 -27.7739 -94.0061 -160.241 104.692 38.4595 -27.7739 -94.0073 -160.24 104.686 38.476 -27.7739 -94.0238 -160.233 104.653 38.5608 -27.7739 -94.1086 -160.2 104.591 38.7413 -27.7739 -94.2891 -160.139 -0.00226408 -0.00293688 -0.00360198 -0.00426757 -0.00492624 -0.00226585 -0.00293348 -0.00360083 -0.0042653 -0.00492714 -0.00226673 -0.00293275 -0.00359886 -0.00426369 -0.00492747 -0.00226701 -0.00293241 -0.00359787 -0.0042628 -0.00492727 -0.00226704 -0.00293224 -0.00359748 -0.00426244 -0.00492703 -0.00226704 -0.00293224 -0.00359748 -0.00426244 -0.00492703 -0.00226701 -0.00293241 -0.00359787 -0.0042628 -0.00492727 -0.00226673 -0.00293275 -0.00359886 -0.00426369 -0.00492747 -0.00226585 -0.00293348 -0.00360083 -0.0042653 -0.00492714 -0.00226408 -0.00293688 -0.00360198 -0.00426757 -0.00492624 
</DataArray>
<DataArray Name="Stress_12" format="ascii" type="Float64">
-0.162289 0.10511 0.114347 0.105108 -0.162286 -0.0814741 0.0242039 0.114519 0.0242071 -0.0814666 -0.0166486 0.00176605 0.029747 0.00177043 -0.0166433 -0.0013562 -0.000289636 0.00328087 -0.000287028 -0.00135336 0.000215577 -0.000161275 -0.000112122 -0.000160468 0.000216456 -0.000215577 0.000161275 0.000112122 0.000160468 -0.000216456 0.0013562 0.000289636 -0.00328087 0.000287028 0.00135336 0.0166486 -0.00176605 -0.029747 -0.00177043 0.0166433 0.0814741 -0.0242039 -0.114519 -0.0242071 0.0814666 0.162289 -0.10511 -0.114347 -0.105108 0.162286 8.11937e-06 2.58035e-06 1.25948e-06 7.57906e-07 -1.83808e-06 4.61726e-06 4.64317e-06 2.41982e-06 2.86767e-07 -1.02717e-06 2.9113e-06 3.06154e-06 2.05229e-06 5.34113e-07 -1.33811e-07 1.73399e-06 1.69348e-06 1.22288e-06 5.6212e-07 1.36793e-07 5.75415e-07 5.44686e-07 4.08508e-07 2.24451e-07 7.9074e-08 -5.75415e-07 -5.44686e-07 -4.08508e-07 -2.24451e-07 -7.9074e-08 -1.73399e-06 -1.69348e-06 -1.22288e-06 -5.6212e-07 -1.36793e-07 -2.9113e-06 -3.06154e-06 -2.05229e-06 -5.34113e-07 1.33811e-07 -4.61726e-06 -4.64317e-06 -2.41982e-06 -2.86767e-07 1.02717e-06 -8.11937e-06 -2.58035e-06 -1.25948e-06 -7.57906e-07 1.83808e-06 
</DataArray>
<DataArray Name="Stress_13" format="ascii" type="Float64">
0 0 0 0 0 0 0 0 0 0 0 0 0 0 0 0 0 0 0 0 0 0 0 0 0 0 0 0 0 0 0 0 0 0 0 0 0 0 0 0 0 0 0 0 0 0 0 0 0 0 0 0 0 0 0 0 0 0 0 0 0 0 0 0 0 0 0 0 0 0 0 0 0 0 0 0 0 0 0 0 0 0 0 0 0 0 0 0 0 0 0 0 0 0 0 0 0 0 0 0 
</DataArray>
<DataArray Name="Stress_23" format="ascii" type="Float64">
0 0 0 0 0 0 0 0 0 0 0 0 0 0 0 0 0 0 0 0 0 0 0 0 0 0 0 0 0 0 0 0 0 0 0 0 0 0 0 0 0 0 0 0 0 0 0 0 0 0 0 0 0 0 0 0 0 0 0 0 0 0 0 0 0 0 0 0 0 0 0 0 0 0 0 0 0 0 0 0 0 0 0 0 0 0 0 0 0 0 0 0 0 0 0 0 0 0 0 0 
</DataArray>
<DataArray Name="Stress_33" format="ascii" type="Float64">
141.976 115.517 88.8904 62.2644 35.8045 141.962 115.44 88.8904 62.3411 35.8191 141.977 115.433 88.8904 62.3483 35.8039 141.981 115.435 88.8904 62.346 35.8001 141.981 115.436 88.8904 62.3451 35.7994 141.981 115.436 88.8904 62.3451 35.7994 141.981 115.435 88.8904 62.346 35.8001 141.977 115.433 88.8904 62.3483 35.8039 141.962 115.44 88.8904 62.3411 35.8191 141.976 115.517 88.8904 62.2644 35.8045 9.44878e-05 -0.000174316 -0.000440927 -0.000707313 -0.000971893 9.20906e-05 -0.000173906 -0.000440421 -0.000706287 -0.000971764 9.17117e-05 -0.000174212 -0.000440164 -0.000706079 -0.000971911 9.15327e-05 -0.000174292 -0.000440166 -0.000706039 -0.000971913 9.14681e-05 -0.000174335 -0.000440176 -0.000706034 -0.000971884 9.14681e-05 -0.000174335 -0.000440176 -0.000706034 -0.000971884 9.15327e-05 -0.000174292 -0.000440166 -0.000706039 -0.000971913 9.17117e-05 -0.000174212 -0.000440164 -0.000706079 -0.000971911 9.20906e-05 -0.000173906 -0.000440421 -0.000706287 -0.000971764 9.44878e-05 -0.000174316 -0.000440927 -0.000707313 -0.000971893 
</DataArray>
</CellData>
<Points>
<DataArray NumberOfComponents="3" format="ascii" type="Float64">
-0.05 -0.05 0 -0.05 0 0 -0.05 -0.04 0 -0.05 -0.03 0 -0.05 -0.02 0 -0.05 -0.01 0 0 0 0 -0.04 0 0 -0.03 0 0 -0.02 0 0 -0.01 0 0 0 -0.05 0 0 -0.01 0 0 -0.02 0 0 -0.03 0 0 -0.04 0 -0.01 -0.05 0 -0.02 -0.05 0 -0.03 -0.05 0 -0.04 -0.05 0 -0.04 -0.04 0 -0.04 -0.03 0 -0.04 -0.02 0 -0.04 -0.01 0 -0.03 -0.04 0 -0.03 -0.03 0 -0.03 -0.02 0 -0.03 -0.01 0 -0.02 -0.04 0 -0.02 -0.03 0 -0.02 -0.02 0 -0.02 -0.01 0 -0.01 -0.04 0 -0.01 -0.03 0 -0.01 -0.02 0 -0.01 -0.01 0 -0.05 0.05 0 -0.05 0.01 0 -0.05 0.02 0 -0.05 0.03 0 -0.05 0.04 0 0 0.05 0 -0.04 0.05 0 -0.03 0.05 0 -0.02 0.05 0 -0.01 0.05 0 0 0.04 0 0 0.03 0 0 0.02 0 0 0.01 0 -0.04 0.01 0 -0.04 0.02 0 -0.04 0.03 0 -0.04 0.04 0 -0.03 0.01 0 -0.03 0.02 0 -0.03 0.03 0 -0.03 0.04 0 -0.02 0.01 0 -0.02 0.02 0 -0.02 0.03 0 -0.02 0.04 0 -0.01 0.01 0 -0.01 0.02 0 -0.01 0.03 0 -0.01 0.04 0 0.05 0 0 0.01 0 0 0.02 0 0 0.03 0 0 0.04 0 0 0.05 -0.05 0 0.05 -0.01 0 0.05 -0.02 0 0.05 -0.03 0 0.05 -0.04 0 0.04 -0.05 0 0.03 -0.05 0 0.02 -0.05 0 0.01 -0.05 0 0.01 -0.04 0 0.01 -0.03 0 0.01 -0.02 0 0.01 -0.01 0 0.02 -0.04 0 0.02 -0.03 0 0.02 -0.02 0 0.02 -0.01 0 0.03 -0.04 0 0.03 -0.03 0 0.03 -0.02 0 0.03 -0.01 0 0.04 -0.04 0 0.04 -0.03 0 0.04 -0.02 0 0.04 -0.01 0 0.05 0.05 0 0.01 0.05 0 0.02 0.05 0 0.03 0.05 0 0.04 0.05 0 0.05 0.04 0 0.05 0.03 0 0.05 0.02 0 0.05 0.01 0 0.01 0.01 0 0.01 0.02 0 0.01 0.03 0 0.01 0.04 0 0.02 0.01 0 0.02 0.02 0 0.02 0.03 0 0.02 0.04 0 0.03 0.01 0 0.03 0.02 0 0.03 0.03 0 0.03 0.04 0 0.04 0.01 0 0.04 0.02 0 0.04 0.03 0 0.04 0.04 0 
</DataArray>
</Points>
<Cells>
<DataArray Name="connectivity" format="ascii" type="Int64">
0 19 20 2 19 18 24 20 18 17 28 24 17 16 32 28 16 11 15 32 2 20 21 3 20 24 25 21 24 28 29 25 28 32 33 29 32 15 14 33 3 21 22 4 21 25 26 22 25 29 30 26 29 33 34 30 33 14 13 34 4 22 23 5 22 26 27 23 26 30 31 27 30 34 35 31 34 13 12 35 5 23 7 1 23 27 8 7 27 31 9 8 31 35 10 9 35 12 6 10 1 7 50 37 7 8 54 50 8 9 58 54 9 10 62 58 10 6 49 62 37 50 51 38 50 54 55 51 54 58 59 55 58 62 63 59 62 49 48 63 38 51 52 39 51 55 56 52 55 59 60 56 59 63 64 60 63 48 47 64 39 52 53 40 52 56 57 53 56 60 61 57 60 64 65 61 64 47 46 65 40 53 42 36 53 57 43 42 57 61 44 43 61 65 45 44 65 46 41 45 11 79 80 15 79 78 84 80 78 77 88 84 77 76 92 88 76 71 75 92 15 80 81 14 80 84 85 81 84 88 89 85 88 92 93 89 92 75 74 93 14 81 82 13 81 85 86 82 85 89 90 86 89 93 94 90 93 74 73 94 13 82 83 12 82 86 87 83 86 90 91 87 90 94 95 91 94 73 72 95 12 83 67 6 83 87 68 67 87 91 69 68 91 95 70 69 95 72 66 70 6 67 105 49 67 68 109 105 68 69 113 109 69 70 117 113 70 66 104 117 49 105 106 48 105 109 110 106 109 113 114 110 113 117 118 114 117 104 103 118 48 106 107 47 106 110 111 107 110 114 115 111 114 118 119 115 118 103 102 119 47 107 108 46 107 111 112 108 111 115 116 112 115 119 120 116 119 102 101 120 46 108 97 41 108 112 98 97 112 116 99 98 116 120 100 99 120 101 96 100 
</DataArray>
<DataArray Name="offsets" format="ascii" type="Int64">
4 8 12 16 20 24 28 32 36 40 44 48 52 56 60 64 68 72 76 80 84 88 92 96 100 104 108 112 116 120 124 128 132 136 140 144 148 152 156 160 164 168 172 176 180 184 188 192 196 200 204 208 212 216 220 224 228 232 236 240 244 248 252 256 260 264 268 272 276 280 284 288 292 296 300 304 308 312 316 320 324 328 332 336 340 344 348 352 356 360 364 368 372 376 380 384 388 392 396 400 
</DataArray>
<DataArray Name="types" format="ascii" type="Int8">
9 9 9 9 9 9 9 9 9 9 9 9 9 9 9 9 9 9 9 9 9 9 9 9 9 9 9 9 9 9 9 9 9 9 9 9 9 9 9 9 9 9 9 9 9 9 9 9 9 9 9 9 9 9 9 9 9 9 9 9 9 9 9 9 9 9 9 9 9 9 9 9 9 9 9 9 9 9 9 9 9 9 9 9 9 9 9 9 9 9 9 9 9 9 9 9 9 9 9 9 
</DataArray>
</Cells>
</Piece>
</UnstructuredGrid>
</VTKFile>
