<?xml version="1.0"?>
<VTKFile byte_order="LittleEndian" type="UnstructuredGrid" version="0.1">
<UnstructuredGrid>
<Piece NumberOfCells="100" NumberOfPoints="121">
<PointData>
<DataArray Name="Warping_X" format="ascii" type="Float64">
-2.38438 -0.00531478 -1.52963 -0.862743 -0.386364 -0.100572 -0.00536263 -0.388841 -0.580612 -0.580621 -0.38887 -2.38443 -0.10062 -0.386412 -0.86279 -1.52968 -2.769 -2.96172 -2.96171 -2.76898 -1.91287 -1.24618 -0.769869 -0.484096 -2.10406 -1.4377 -0.961594 -0.675862 -2.10406 -1.43771 -0.961604 -0.675872 -1.9129 -1.24621 -0.769898 -0.484125 -2.38438 -0.100572 -0.386364 -0.862743 -1.52963 -2.38443 -2.76898 -2.96171 -2.96172 -2.769 -1.52968 -0.86279 -0.386412 -0.10062 -0.484096 -0.769869 -1.24618 -1.91287 -0.675862 -0.961594 -1.4377 -2.10406 -0.675872 -0.961604 -1.43771 -2.10406 -0.484125 -0.769898 -1.24621 -1.9129 4.78737 0.570881 1.33818 2.2966 3.44628 2.3998 4.69177 4.40492 3.92668 3.25727 1.05759 -0.0930763 -1.05127 -1.81617 -0.95426 -0.287028 0.189616 0.475565 -0.18915 0.479559 0.956594 1.24279 0.76795 1.43692 1.9146 2.20111 1.91655 2.58582 3.06395 3.35071 2.3998 -1.81617 -1.05127 -0.0930763 1.05759 3.25727 3.92668 4.40492 4.69177 0.475565 0.189616 -0.287028 -0.95426 1.24279 0.956594 0.479559 -0.18915 2.20111 1.9146 1.43692 0.76795 3.35071 3.06395 2.58582 1.91655 
</DataArray>
<DataArray Name="Warping_Y" format="ascii" type="Float64">
2.37807 3.649e-12 1.9043 1.42872 0.952552 0.476278 -2.26559e-11 -1.61194e-12 -6.87298e-12 -1.21341e-11 -1.73953e-11 -2.37798 -0.476259 -0.952514 -1.42867 -1.90422 -1.43088 -0.477137 0.477233 1.43098 1.14364 0.857373 0.571529 0.285762 0.381606 0.285911 0.190533 0.0952592 -0.38153 -0.285853 -0.190495 -0.0952401 -1.14357 -0.857315 -0.571491 -0.285743 -2.37807 -0.476278 -0.952552 -1.42872 -1.9043 2.37798 -1.43098 -0.477233 0.477137 1.43088 1.90422 1.42867 0.952514 0.476259 -0.285762 -0.571529 -0.857373 -1.14364 -0.0952592 -0.190533 -0.285911 -0.381606 0.0952401 0.190495 0.285853 0.38153 0.285743 0.571491 0.857315 1.14357 2.20899e-11 -1.04489e-11 1.26522e-12 1.16462e-11 1.92516e-11 -7.16738 -1.43415 -2.86838 -4.30256 -5.73599 -6.21765 -5.26104 -4.30252 -3.34248 -2.67198 -2.00389 -1.33591 -0.667937 -3.44092 -2.5798 -1.71955 -0.859691 -4.20798 -3.15507 -2.10293 -1.05136 -4.97281 -3.72903 -2.48581 -1.24284 7.16738 3.34248 4.30252 5.26104 6.21765 5.73599 4.30256 2.86838 1.43415 0.667937 1.33591 2.00389 2.67198 0.859691 1.71955 2.5798 3.44092 1.05136 2.10293 3.15507 4.20798 1.24284 2.48581 3.72903 4.97281 
</DataArray>
<DataArray Name="Warping_Z" format="ascii" type="Float64">
0 0 0 0 0 0 0 0 0 0 0 0 0 0 0 0 0 0 0 0 0 0 0 0 0 0 0 0 0 0 0 0 0 0 0 0 0 0 0 0 0 0 0 0 0 0 0 0 0 0 0 0 0 0 0 0 0 0 0 0 0 0 0 0 0 0 0 0 0 0 0 0 0 0 0 0 0 0 0 0 0 0 0 0 0 0 0 0 0 0 0 0 0 0 0 0 0 0 0 0 0 0 0 0 0 0 0 0 0 0 0 0 0 0 0 0 0 0 0 0 0 
</DataArray>
</PointData>
<CellData>
<DataArray Name="MaterialId" format="ascii" type="Float64">
1 1 1 1 1 1 1 1 1 1 1 1 1 1 1 1 1 1 1 1 1 1 1 1 1 1 1 1 1 1 1 1 1 1 1 1 1 1 1 1 1 1 1 1 1 1 1 1 1 1 2 2 2 2 2 2 2 2 2 2 2 2 2 2 2 2 2 2 2 2 2 2 2 2 2 2 2 2 2 2 2 2 2 2 2 2 2 2 2 2 2 2 2 2 2 2 2 2 2 2 
</DataArray>
<DataArray Name="FiberAngle" format="ascii" type="Float64">
0 0 0 0 0 0 0 0 0 0 0 0 0 0 0 0 0 0 0 0 0 0 0 0 0 0 0 0 0 0 0 0 0 0 0 0 0 0 0 0 0 0 0 0 0 0 0 0 0 0 0 0 0 0 0 0 0 0 0 0 0 0 0 0 0 0 0 0 0 0 0 0 0 0 0 0 0 0 0 0 0 0 0 0 0 0 0 0 0 0 0 0 0 0 0 0 0 0 0 0 
</DataArray>
<DataArray Name="Strain_11" format="ascii" type="Float64">
-38.3915 -19.1961 -0.000961155 19.1942 38.3896 -38.334 -19.1355 -0.000957823 19.1336 38.3321 -38.3473 -19.1623 -0.000956425 19.1604 38.3454 -38.3515 -19.1746 -0.000956384 19.1727 38.3496 -38.3525 -19.1768 -0.000956543 19.1749 38.3506 -38.3525 -19.1768 -0.000956543 19.1749 38.3506 -38.3515 -19.1746 -0.000956384 19.1727 38.3496 -38.3473 -19.1623 -0.000956425 19.1604 38.3454 -38.334 -19.1355 -0.000957823 19.1336 38.3321 -38.3915 -19.1961 -0.000961155 19.1942 38.3896 57.1839 76.5003 95.7649 114.963 134.147 57.5589 76.5848 95.723 114.875 134.079 57.5896 76.6782 95.7683 114.913 134.091 57.6106 76.7101 95.8164 114.947 134.101 57.6214 76.7262 95.837 114.964 134.107 57.6214 76.7262 95.837 114.964 134.107 57.6106 76.7101 95.8164 114.947 134.101 57.5896 76.6782 95.7683 114.913 134.091 57.5589 76.5848 95.723 114.875 134.079 57.1839 76.5003 95.7649 114.963 134.147 
</DataArray>
<DataArray Name="Strain_22" format="ascii" type="Float64">
-38.0556 -19.1481 -0.000956753 19.1462 38.0537 -38.0922 -19.0983 -0.000957729 19.0964 38.0903 -38.1007 -19.0611 -0.00095738 19.0591 38.0988 -38.1021 -19.0521 -0.000956684 19.0501 38.1002 -38.102 -19.0511 -0.000956299 19.0491 38.1001 -38.102 -19.0511 -0.000956299 19.0491 38.1001 -38.1021 -19.0521 -0.000956684 19.0501 38.1002 -38.1007 -19.0611 -0.00095738 19.0591 38.0988 -38.0922 -19.0983 -0.000957729 19.0964 38.0903 -38.0556 -19.1481 -0.000956753 19.1462 38.0537 57.2125 76.6046 95.7328 114.895 133.812 57.1826 76.4611 95.7017 114.835 133.861 57.2066 76.4116 95.6195 114.768 133.87 57.2113 76.3914 95.5717 114.727 133.86 57.2098 76.3814 95.5524 114.71 133.85 57.2098 76.3814 95.5524 114.71 133.85 57.2113 76.3914 95.5717 114.727 133.86 57.2066 76.4116 95.6195 114.768 133.87 57.1826 76.4611 95.7017 114.835 133.861 57.2125 76.6046 95.7328 114.895 133.812 
</DataArray>
<DataArray Name="Strain_12" format="ascii" type="Float64">
0.155799 -0.100906 -0.109774 -0.100904 0.155796 0.0782161 -0.023236 -0.109939 -0.0232391 0.0782089 0.0159828 -0.00169542 -0.0285574 -0.00169963 0.0159778 0.00130196 0.000278054 -0.00314968 0.000275551 0.00129924 -0.000206956 0.000154826 0.000107638 0.000154051 -0.0002078 0.000206956 -0.000154826 -0.000107638 -0.000154051 0.0002078 -0.00130196 -0.000278054 0.00314968 -0.000275551 -0.00129924 -0.0159828 0.00169542 0.0285574 0.00169963 -0.0159778 -0.0782161 0.023236 0.109939 0.0232391 -0.0782089 -0.155799 0.100906 0.109774 0.100904 -0.155796 -0.779469 -0.247717 -0.120911 -0.0727598 0.176458 -0.443262 -0.445749 -0.232305 -0.0275299 0.09861 -0.279488 -0.293911 -0.197022 -0.0512754 0.012846 -0.166465 -0.162576 -0.117398 -0.0539642 -0.0131322 -0.0552405 -0.0522905 -0.0392173 -0.0215475 -0.0075912 0.0552405 0.0522905 0.0392173 0.0215475 0.0075912 0.166465 0.162576 0.117398 0.0539642 0.0131322 0.279488 0.293911 0.197022 0.0512754 -0.012846 0.443262 0.445749 0.232305 0.0275299 -0.09861 0.779469 0.247717 0.120911 0.0727598 -0.176458 
</DataArray>
<DataArray Name="Strain_13" format="ascii" type="Float64">
0 0 0 0 0 0 0 0 0 0 0 0 0 0 0 0 0 0 0 0 0 0 0 0 0 0 0 0 0 0 0 0 0 0 0 0 0 0 0 0 0 0 0 0 0 0 0 0 0 0 0 0 0 0 0 0 0 0 0 0 0 0 0 0 0 0 0 0 0 0 0 0 0 0 0 0 0 0 0 0 0 0 0 0 0 0 0 0 0 0 0 0 0 0 0 0 0 0 0 0 
</DataArray>
<DataArray Name="Strain_23" format="ascii" type="Float64">
0 0 0 0 0 0 0 0 0 0 0 0 0 0 0 0 0 0 0 0 0 0 0 0 0 0 0 0 0 0 0 0 0 0 0 0 0 0 0 0 0 0 0 0 0 0 0 0 0 0 0 0 0 0 0 0 0 0 0 0 0 0 0 0 0 0 0 0 0 0 0 0 0 0 0 0 0 0 0 0 0 0 0 0 0 0 0 0 0 0 0 0 0 0 0 0 0 0 0 0 
</DataArray>
<DataArray Name="Strain_33" format="ascii" type="Float64">
0.045 0.035 0.025 0.015 0.005 0.045 0.035 0.025 0.015 0.005 0.045 0.035 0.025 0.015 0.005 0.045 0.035 0.025 0.015 0.005 0.045 0.035 0.025 0.015 0.005 0.045 0.035 0.025 0.015 0.005 0.045 0.035 0.025 0.015 0.005 0.045 0.035 0.025 0.015 0.005 0.045 0.035 0.025 0.015 0.005 0.045 0.035 0.025 0.015 0.005 -0.005 -0.015 -0.025 -0.035 -0.045 -0.005 -0.015 -0.025 -0.035 -0.045 -0.005 -0.015 -0.025 -0.035 -0.045 -0.005 -0.015 -0.025 -0.035 -0.045 -0.005 -0.015 -0.025 -0.035 -0.045 -0.005 -0.015 -0.025 -0.035 -0.045 -0.005 -0.015 -0.025 -0.035 -0.045 -0.005 -0.015 -0.025 -0.035 -0.045 -0.005 -0.015 -0.025 -0.035 -0.045 -0.005 -0.015 -0.025 -0.035 -0.045 
</DataArray>
<DataArray Name="Stress_11" format="ascii" type="Float64">
-5321.58 -2663.82 0.561073 2664.95 5322.7 -5316.2 -2655.7 0.561416 2656.82 5317.32 -5317.91 -2657.65 0.561581 2658.77 5319.04 -5318.42 -2658.76 0.561605 2659.88 5319.54 -5318.53 -2658.98 0.561598 2660.11 5319.66 -5318.53 -2658.98 0.561598 2660.11 5319.66 -5318.42 -2658.76 0.561605 2659.88 5319.54 -5317.91 -2657.65 0.561581 2658.77 5319.04 -5316.2 -2655.7 0.561416 2656.82 5317.32 -5321.58 -2663.82 0.561073 2664.95 5322.7 0.0794286 0.106275 0.132991 0.159643 0.186209 0.0798371 0.106329 0.132936 0.159528 0.186147 0.0798777 0.106419 0.132963 0.159551 0.186164 0.0799025 0.106449 0.133003 0.159578 0.186172 0.079914 0.106464 0.133021 0.159592 0.186176 0.079914 0.106464 0.133021 0.159592 0.186176 0.0799025 0.106449 0.133003 0.159578 0.186172 0.0798777 0.106419 0.132963 0.159551 0.186164 0.0798371 0.106329 0.132936 0.159528 0.186147 0.0794286 0.106275 0.132991 0.159643 0.186209 
</DataArray>
<DataArray Name="Stress_22" format="ascii" type="Float64">
-5293.59 -2659.82 0.56144 2660.94 5294.71 -5296.05 -2652.6 0.561424 2653.73 5297.18 -5297.37 -2649.21 0.561502 2650.33 5298.49 -5297.63 -2648.55 0.56158 2649.67 5298.76 -5297.65 -2648.5 0.561618 2649.63 5298.78 -5297.65 -2648.5 0.561618 2649.63 5298.78 -5297.63 -2648.55 0.56158 2649.67 5298.76 -5297.37 -2649.21 0.561502 2650.33 5298.49 -5296.05 -2652.6 0.561424 2653.73 5297.18 -5293.59 -2659.82 0.56144 2660.94 5294.71 0.0794525 0.106362 0.132964 0.159585 0.18593 0.0795235 0.106226 0.132918 0.159494 0.185966 0.0795586 0.106197 0.132839 0.15943 0.185979 0.0795696 0.106183 0.132799 0.159395 0.185971 0.079571 0.106177 0.132784 0.15938 0.185961 0.079571 0.106177 0.132784 0.15938 0.185961 0.0795696 0.106183 0.132799 0.159395 0.185971 0.0795586 0.106197 0.132839 0.15943 0.185979 0.0795235 0.106226 0.132918 0.159494 0.185966 0.0794525 0.106362 0.132964 0.159585 0.18593 
</DataArray>
<DataArray Name="Stress_12" format="ascii" type="Float64">
6.49169 -4.20447 -4.57396 -4.20438 6.49156 3.25903 -0.968176 -4.58084 -0.968304 3.25873 0.665956 -0.0706433 -1.1899 -0.0708184 0.665746 0.0542489 0.0115857 -0.131238 0.0114814 0.0541356 -0.00862325 0.00645114 0.00448496 0.00641885 -0.00865841 0.00862325 -0.00645114 -0.00448496 -0.00641885 0.00865841 -0.0542489 -0.0115857 0.131238 -0.0114814 -0.0541356 -0.665956 0.0706433 1.1899 0.0708184 -0.665746 -3.25903 0.968176 4.58084 0.968304 -3.25873 -6.49169 4.20447 4.57396 4.20438 -6.49156 -0.000324781 -0.000103216 -5.03801e-05 -3.03168e-05 7.35246e-05 -0.000184694 -0.00018573 -9.67947e-05 -1.14709e-05 4.10878e-05 -0.000116454 -0.000122464 -8.20931e-05 -2.13649e-05 5.35255e-06 -6.9361e-05 -6.77405e-05 -4.89162e-05 -2.24853e-05 -5.47181e-06 -2.30171e-05 -2.17879e-05 -1.63407e-05 -8.97822e-06 -3.16303e-06 2.30171e-05 2.17879e-05 1.63407e-05 8.97822e-06 3.16303e-06 6.9361e-05 6.77405e-05 4.89162e-05 2.24853e-05 5.47181e-06 0.000116454 0.000122464 8.20931e-05 2.13649e-05 -5.35255e-06 0.000184694 0.00018573 9.67947e-05 1.14709e-05 -4.10878e-05 0.000324781 0.000103216 5.03801e-05 3.03168e-05 -7.35246e-05 
</DataArray>
<DataArray Name="Stress_13" format="ascii" type="Float64">
0 0 0 0 0 0 0 0 0 0 0 0 0 0 0 0 0 0 0 0 0 0 0 0 0 0 0 0 0 0 0 0 0 0 0 0 0 0 0 0 0 0 0 0 0 0 0 0 0 0 0 0 0 0 0 0 0 0 0 0 0 0 0 0 0 0 0 0 0 0 0 0 0 0 0 0 0 0 0 0 0 0 0 0 0 0 0 0 0 0 0 0 0 0 0 0 0 0 0 0 
</DataArray>
<DataArray Name="Stress_23" format="ascii" type="Float64">
0 0 0 0 0 0 0 0 0 0 0 0 0 0 0 0 0 0 0 0 0 0 0 0 0 0 0 0 0 0 0 0 0 0 0 0 0 0 0 0 0 0 0 0 0 0 0 0 0 0 0 0 0 0 0 0 0 0 0 0 0 0 0 0 0 0 0 0 0 0 0 0 0 0 0 0 0 0 0 0 0 0 0 0 0 0 0 0 0 0 0 0 0 0 0 0 0 0 0 0 
</DataArray>
<DataArray Name="Stress_33" format="ascii" type="Float64">
-2118.53 -1061.23 2.7245 1066.68 2123.98 -2117.95 -1058.16 2.72457 1063.61 2123.4 -2118.56 -1057.87 2.72462 1063.32 2124.01 -2118.71 -1057.96 2.72464 1063.41 2124.16 -2118.74 -1058 2.72464 1063.45 2124.19 -2118.74 -1058 2.72464 1063.45 2124.19 -2118.71 -1057.96 2.72464 1063.41 2124.16 -2118.56 -1057.87 2.72462 1063.32 2124.01 -2117.95 -1058.16 2.72457 1063.61 2123.4 -2118.53 -1061.23 2.7245 1066.68 2123.98 0.0317712 0.0425125 0.053166 0.0638106 0.0743828 0.0318671 0.0424961 0.0531458 0.0637695 0.0743777 0.0318823 0.0425083 0.0531355 0.0637612 0.0743836 0.0318894 0.0425115 0.0531356 0.0637596 0.0743837 0.031892 0.0425132 0.053136 0.0637594 0.0743825 0.031892 0.0425132 0.053136 0.0637594 0.0743825 0.0318894 0.0425115 0.0531356 0.0637596 0.0743837 0.0318823 0.0425083 0.0531355 0.0637612 0.0743836 0.0318671 0.0424961 0.0531458 0.0637695 0.0743777 0.0317712 0.0425125 0.053166 0.0638106 0.0743828 
</DataArray>
</CellData>
<Points>
<DataArray NumberOfComponents="3" format="ascii" type="Float64">
-0.05 -0.05 0 -0.05 0 0 -0.05 -0.04 0 -0.05 -0.03 0 -0.05 -0.02 0 -0.05 -0.01 0 0 0 0 -0.04 0 0 -0.03 0 0 -0.02 0 0 -0.01 0 0 0 -0.05 0 0 -0.01 0 0 -0.02 0 0 -0.03 0 0 -0.04 0 -0.01 -0.05 0 -0.02 -0.05 0 -0.03 -0.05 0 -0.04 -0.05 0 -0.04 -0.04 0 -0.04 -0.03 0 -0.04 -0.02 0 -0.04 -0.01 0 -0.03 -0.04 0 -0.03 -0.03 0 -0.03 -0.02 0 -0.03 -0.01 0 -0.02 -0.04 0 -0.02 -0.03 0 -0.02 -0.02 0 -0.02 -0.01 0 -0.01 -0.04 0 -0.01 -0.03 0 -0.01 -0.02 0 -0.01 -0.01 0 -0.05 0.05 0 -0.05 0.01 0 -0.05 0.02 0 -0.05 0.03 0 -0.05 0.04 0 0 0.05 0 -0.04 0.05 0 -0.03 0.05 0 -0.02 0.05 0 -0.01 0.05 0 0 0.04 0 0 0.03 0 0 0.02 0 0 0.01 0 -0.04 0.01 0 -0.04 0.02 0 -0.04 0.03 0 -0.04 0.04 0 -0.03 0.01 0 -0.03 0.02 0 -0.03 0.03 0 -0.03 0.04 0 -0.02 0.01 0 -0.02 0.02 0 -0.02 0.03 0 -0.02 0.04 0 -0.01 0.01 0 -0.01 0.02 0 -0.01 0.03 0 -0.01 0.04 0 0.05 0 0 0.01 0 0 0.02 0 0 0.03 0 0 0.04 0 0 0.05 -0.05 0 0.05 -0.01 0 0.05 -0.02 0 0.05 -0.03 0 0.05 -0.04 0 0.04 -0.05 0 0.03 -0.05 0 0.02 -0.05 0 0.01 -0.05 0 0.01 -0.04 0 0.01 -0.03 0 0.01 -0.02 0 0.01 -0.01 0 0.02 -0.04 0 0.02 -0.03 0 0.02 -0.02 0 0.02 -0.01 0 0.03 -0.04 0 0.03 -0.03 0 0.03 -0.02 0 0.03 -0.01 0 0.04 -0.04 0 0.04 -0.03 0 0.04 -0.02 0 0.04 -0.01 0 0.05 0.05 0 0.01 0.05 0 0.02 0.05 0 0.03 0.05 0 0.04 0.05 0 0.05 0.04 0 0.05 0.03 0 0.05 0.02 0 0.05 0.01 0 0.01 0.01 0 0.01 0.02 0 0.01 0.03 0 0.01 0.04 0 0.02 0.01 0 0.02 0.02 0 0.02 0.03 0 0.02 0.04 0 0.03 0.01 0 0.03 0.02 0 0.03 0.03 0 0.03 0.04 0 0.04 0.01 0 0.04 0.02 0 0.04 0.03 0 0.04 0.04 0 
</DataArray>
</Points>
<Cells>
<DataArray Name="connectivity" format="ascii" type="Int64">
0 19 20 2 19 18 24 20 18 17 28 24 17 16 32 28 16 11 15 32 2 20 21 3 20 24 25 21 24 28 29 25 28 32 33 29 32 15 14 33 3 21 22 4 21 25 26 22 25 29 30 26 29 33 34 30 33 14 13 34 4 22 23 5 22 26 27 23 26 30 31 27 30 34 35 31 34 13 12 35 5 23 7 1 23 27 8 7 27 31 9 8 31 35 10 9 35 12 6 10 1 7 50 37 7 8 54 50 8 9 58 54 9 10 62 58 10 6 49 62 37 50 51 38 50 54 55 51 54 58 59 55 58 62 63 59 62 49 48 63 38 51 52 39 51 55 56 52 55 59 60 56 59 63 64 60 63 48 47 64 39 52 53 40 52 56 57 53 56 60 61 57 60 64 65 61 64 47 46 65 40 53 42 36 53 57 43 42 57 61 44 43 61 65 45 44 65 46 41 45 11 79 80 15 79 78 84 80 78 77 88 84 77 76 92 88 76 71 75 92 15 80 81 14 80 84 85 81 84 88 89 85 88 92 93 89 92 75 74 93 14 81 82 13 81 85 86 82 85 89 90 86 89 93 94 90 93 74 73 94 13 82 83 12 82 86 87 83 86 90 91 87 90 94 95 91 94 73 72 95 12 83 67 6 83 87 68 67 87 91 69 68 91 95 70 69 95 72 66 70 6 67 105 49 67 68 109 105 68 69 113 109 69 70 117 113 70 66 104 117 49 105 106 48 105 109 110 106 109 113 114 110 113 117 118 114 117 104 103 118 48 106 107 47 106 110 111 107 110 114 115 111 114 118 119 115 118 103 102 119 47 107 108 46 107 111 112 108 111 115 116 112 115 119 120 116 119 102 101 120 46 108 97 41 108 112 98 97 112 116 99 98 116 120 100 99 120 101 96 100 
</DataArray>
<DataArray Name="offsets" format="ascii" type="Int64">
4 8 12 16 20 24 28 32 36 40 44 48 52 56 60 64 68 72 76 80 84 88 92 96 100 104 108 112 116 120 124 128 132 136 140 144 148 152 156 160 164 168 172 176 180 184 188 192 196 200 204 208 212 216 220 224 228 232 236 240 244 248 252 256 260 264 268 272 276 280 284 288 292 296 300 304 308 312 316 320 324 328 332 336 340 344 348 352 356 360 364 368 372 376 380 384 388 392 396 400 
</DataArray>
<DataArray Name="types" format="ascii" type="Int8">
9 9 9 9 9 9 9 9 9 9 9 9 9 9 9 9 9 9 9 9 9 9 9 9 9 9 9 9 9 9 9 9 9 9 9 9 9 9 9 9 9 9 9 9 9 9 9 9 9 9 9 9 9 9 9 9 9 9 9 9 9 9 9 9 9 9 9 9 9 9 9 9 9 9 9 9 9 9 9 9 9 9 9 9 9 9 9 9 9 9 9 9 9 9 9 9 9 9 9 9 
</DataArray>
</Cells>
</Piece>
</UnstructuredGrid>
</VTKFile>
