<?xml version="1.0"?>
<VTKFile byte_order="LittleEndian" type="UnstructuredGrid" version="0.1">
<UnstructuredGrid>
<Piece NumberOfCells="100" NumberOfPoints="121">
<PointData>
<DataArray Name="Warping_X" format="ascii" type="Float64">
-1.19587 2.44073e-12 -0.958205 -0.718894 -0.479336 -0.239677 2.4408e-12 2.44073e-12 2.44073e-12 2.44073e-12 2.44076e-12 -0.0012252 0.000258764 0.000499353 0.000638781 0.000532012 -0.239835 -0.478927 -0.718165 -0.957257 -0.766302 -0.57502 -0.3834 -0.191707 -0.574634 -0.431082 -0.287421 -0.143713 -0.383039 -0.287172 -0.191416 -0.0957058 -0.191371 -0.143235 -0.0954368 -0.0477108 1.19587 0.239677 0.479336 0.718894 0.958205 0.0012252 0.957257 0.718165 0.478927 0.239835 -0.000532012 -0.000638781 -0.000499353 -0.000258764 0.191707 0.3834 0.57502 0.766302 0.143713 0.287421 0.431082 0.574634 0.0957058 0.191416 0.287172 0.383039 0.0477108 0.0954368 0.143235 0.191371 -4.04629e-12 3.67071e-13 -1.31263e-12 -2.6052e-12 -3.51528e-12 1.19623 0.239817 0.47957 0.719169 0.95851 0.957618 0.71848 0.479051 0.23932 0.191688 0.144095 0.0961752 0.0481189 0.383278 0.287669 0.191921 0.0960018 0.57491 0.431427 0.287761 0.143922 0.766603 0.575314 0.383664 0.191868 -1.19623 -0.23932 -0.479051 -0.71848 -0.957618 -0.95851 -0.719169 -0.47957 -0.239817 -0.0481189 -0.0961752 -0.144095 -0.191688 -0.0960018 -0.191921 -0.287669 -0.383278 -0.143922 -0.287761 -0.431427 -0.57491 -0.191868 -0.383664 -0.575314 -0.766603 
</DataArray>
<DataArray Name="Warping_Y" format="ascii" type="Float64">
-0.00139967 0.599318 0.214872 0.383144 0.50327 0.57531 0.000771973 0.38366 0.216004 0.0962945 0.0245327 -0.599945 -0.0232355 -0.0952755 -0.215401 -0.383674 -0.575078 -0.503153 -0.383444 -0.21595 -3.19232e-05 0.167786 0.287712 0.359673 -0.167503 0.000325048 0.120144 0.192037 -0.287212 -0.119384 0.000434435 0.072328 -0.359159 -0.191341 -0.0714157 0.000545444 -0.00139967 0.57531 0.50327 0.383144 0.214872 -0.599945 -0.21595 -0.383444 -0.503153 -0.575078 -0.383674 -0.215401 -0.0952755 -0.0232355 0.359673 0.287712 0.167786 -3.19232e-05 0.192037 0.120144 0.000325048 -0.167503 0.072328 0.000434435 -0.119384 -0.287212 0.000545444 -0.0714157 -0.191341 -0.359159 0.599287 0.0245416 0.0962377 0.21589 0.383544 -0.0016338 0.575249 0.503137 0.382944 0.214641 -0.216263 -0.383884 -0.503775 -0.575844 -0.359861 -0.191632 -0.0715133 0.000531882 -0.287817 -0.119811 0.000221721 0.0722342 -0.167938 -3.41201e-05 0.119903 0.191891 -0.000336653 0.167522 0.287514 0.359534 -0.0016338 -0.575844 -0.503775 -0.383884 -0.216263 0.214641 0.382944 0.503137 0.575249 0.000531882 -0.0715133 -0.191632 -0.359861 0.0722342 0.000221721 -0.119811 -0.287817 0.191891 0.119903 -3.41201e-05 -0.167938 0.359534 0.287514 0.167522 -0.000336653 
</DataArray>
<DataArray Name="Warping_Z" format="ascii" type="Float64">
0 0 0 0 0 0 0 0 0 0 0 0 0 0 0 0 0 0 0 0 0 0 0 0 0 0 0 0 0 0 0 0 0 0 0 0 0 0 0 0 0 0 0 0 0 0 0 0 0 0 0 0 0 0 0 0 0 0 0 0 0 0 0 0 0 0 0 0 0 0 0 0 0 0 0 0 0 0 0 0 0 0 0 0 0 0 0 0 0 0 0 0 0 0 0 0 0 0 0 0 0 0 0 0 0 0 0 0 0 0 0 0 0 0 0 0 0 0 0 0 0 
</DataArray>
</PointData>
<CellData>
<DataArray Name="MaterialId" format="ascii" type="Float64">
1 1 1 1 1 1 1 1 1 1 1 1 1 1 1 1 1 1 1 1 1 1 1 1 1 1 1 1 1 1 1 1 1 1 1 1 1 1 1 1 1 1 1 1 1 1 1 1 1 1 2 2 2 2 2 2 2 2 2 2 2 2 2 2 2 2 2 2 2 2 2 2 2 2 2 2 2 2 2 2 2 2 2 2 2 2 2 2 2 2 2 2 2 2 2 2 2 2 2 2 
</DataArray>
<DataArray Name="FiberAngle" format="ascii" type="Float64">
0 0 0 0 0 0 0 0 0 0 0 0 0 0 0 0 0 0 0 0 0 0 0 0 0 0 0 0 0 0 0 0 0 0 0 0 0 0 0 0 0 0 0 0 0 0 0 0 0 0 0 0 0 0 0 0 0 0 0 0 0 0 0 0 0 0 0 0 0 0 0 0 0 0 0 0 0 0 0 0 0 0 0 0 0 0 0 0 0 0 0 0 0 0 0 0 0 0 0 0 
</DataArray>
<DataArray Name="Strain_11" format="ascii" type="Float64">
21.5256 21.538 21.5417 21.538 21.5256 16.7888 16.7803 16.7752 16.7803 16.7888 11.9905 11.9958 11.9957 11.9958 11.9905 7.19529 7.19871 7.20056 7.19871 7.19529 2.39848 2.39975 2.40033 2.39975 2.39848 -2.39848 -2.39975 -2.40033 -2.39975 -2.39848 -7.19529 -7.19871 -7.20056 -7.19871 -7.19529 -11.9905 -11.9958 -11.9957 -11.9958 -11.9905 -16.7888 -16.7803 -16.7752 -16.7803 -16.7888 -21.5256 -21.538 -21.5417 -21.538 -21.5256 21.585 21.5661 21.5531 21.5415 21.5261 16.7306 16.7582 16.7695 16.779 16.7881 11.9566 11.966 11.9799 11.9895 11.9881 7.1768 7.18143 7.18798 7.19247 7.19274 2.39301 2.39414 2.396 2.39732 2.39743 -2.39301 -2.39414 -2.396 -2.39732 -2.39743 -7.1768 -7.18143 -7.18798 -7.19247 -7.19274 -11.9566 -11.966 -11.9799 -11.9895 -11.9881 -16.7306 -16.7582 -16.7695 -16.779 -16.7881 -21.585 -21.5661 -21.5531 -21.5415 -21.5261 
</DataArray>
<DataArray Name="Strain_22" format="ascii" type="Float64">
21.6095 21.593 21.5941 21.593 21.6095 16.8046 16.7823 16.7828 16.7823 16.8046 12.0026 11.9872 11.9819 11.9872 12.0026 7.20006 7.19273 7.18936 7.19273 7.20006 2.39973 2.39769 2.39665 2.39769 2.39973 -2.39973 -2.39769 -2.39665 -2.39769 -2.39973 -7.20006 -7.19273 -7.18936 -7.19273 -7.20006 -12.0026 -11.9872 -11.9819 -11.9872 -12.0026 -16.8046 -16.7823 -16.7828 -16.7823 -16.8046 -21.6095 -21.593 -21.5941 -21.593 -21.6095 21.6127 21.597 21.5952 21.5936 21.6101 16.8251 16.8118 16.7955 16.7881 16.8081 12.0122 12.0076 11.9985 11.9964 12.0092 7.20426 7.20288 7.2 7.20039 7.2066 2.40086 2.40066 2.40013 2.40049 2.40242 -2.40086 -2.40066 -2.40013 -2.40049 -2.40242 -7.20426 -7.20288 -7.2 -7.20039 -7.2066 -12.0122 -12.0076 -11.9985 -11.9964 -12.0092 -16.8251 -16.8118 -16.7955 -16.7881 -16.8081 -21.6127 -21.597 -21.5952 -21.5936 -21.6101 
</DataArray>
<DataArray Name="Strain_12" format="ascii" type="Float64">
-0.0419276 -0.0239297 -4.50445e-07 0.0239286 0.0419268 0.0166133 -0.00490912 -4.7595e-07 0.00490848 -0.0166129 0.0130705 0.0126312 2.96364e-08 -0.0126309 -0.0130703 0.00776644 0.00982255 3.83652e-07 -0.00982189 -0.00776632 0.00447742 0.0063851 5.13106e-07 -0.00638428 -0.00447731 0.00447742 0.0063851 5.13106e-07 -0.00638428 -0.00447731 0.00776644 0.00982255 3.83652e-07 -0.00982189 -0.00776632 0.0130705 0.0126312 2.96364e-08 -0.0126309 -0.0130703 0.0166133 -0.00490912 -4.7595e-07 0.00490848 -0.0166129 -0.0419276 -0.0239297 -4.50445e-07 0.0239286 0.0419268 0.101969 0.0354446 0.0214128 0.0318751 0.0435252 0.00482946 0.0331691 0.0281357 0.0192438 -0.011525 -0.0263934 -0.00559544 0.00221238 -0.00749774 -0.0101482 -0.0383713 -0.0269077 -0.021007 -0.0190166 -0.0104737 -0.0420339 -0.0361105 -0.0307539 -0.0246046 -0.0113782 -0.0420339 -0.0361105 -0.0307539 -0.0246046 -0.0113782 -0.0383713 -0.0269077 -0.021007 -0.0190166 -0.0104737 -0.0263934 -0.00559544 0.00221238 -0.00749774 -0.0101482 0.00482946 0.0331691 0.0281357 0.0192438 -0.011525 0.101969 0.0354446 0.0214128 0.0318751 0.0435252 
</DataArray>
<DataArray Name="Strain_13" format="ascii" type="Float64">
0 0 0 0 0 0 0 0 0 0 0 0 0 0 0 0 0 0 0 0 0 0 0 0 0 0 0 0 0 0 0 0 0 0 0 0 0 0 0 0 0 0 0 0 0 0 0 0 0 0 0 0 0 0 0 0 0 0 0 0 0 0 0 0 0 0 0 0 0 0 0 0 0 0 0 0 0 0 0 0 0 0 0 0 0 0 0 0 0 0 0 0 0 0 0 0 0 0 0 0 
</DataArray>
<DataArray Name="Strain_23" format="ascii" type="Float64">
0 0 0 0 0 0 0 0 0 0 0 0 0 0 0 0 0 0 0 0 0 0 0 0 0 0 0 0 0 0 0 0 0 0 0 0 0 0 0 0 0 0 0 0 0 0 0 0 0 0 0 0 0 0 0 0 0 0 0 0 0 0 0 0 0 0 0 0 0 0 0 0 0 0 0 0 0 0 0 0 0 0 0 0 0 0 0 0 0 0 0 0 0 0 0 0 0 0 0 0 
</DataArray>
<DataArray Name="Strain_33" format="ascii" type="Float64">
-0.045 -0.045 -0.045 -0.045 -0.045 -0.035 -0.035 -0.035 -0.035 -0.035 -0.025 -0.025 -0.025 -0.025 -0.025 -0.015 -0.015 -0.015 -0.015 -0.015 -0.005 -0.005 -0.005 -0.005 -0.005 0.005 0.005 0.005 0.005 0.005 0.015 0.015 0.015 0.015 0.015 0.025 0.025 0.025 0.025 0.025 0.035 0.035 0.035 0.035 0.035 0.045 0.045 0.045 0.045 0.045 -0.045 -0.045 -0.045 -0.045 -0.045 -0.035 -0.035 -0.035 -0.035 -0.035 -0.025 -0.025 -0.025 -0.025 -0.025 -0.015 -0.015 -0.015 -0.015 -0.015 -0.005 -0.005 -0.005 -0.005 -0.005 0.005 0.005 0.005 0.005 0.005 0.015 0.015 0.015 0.015 0.015 0.025 0.025 0.025 0.025 0.025 0.035 0.035 0.035 0.035 0.035 0.045 0.045 0.045 0.045 0.045 
</DataArray>
<DataArray Name="Stress_11" format="ascii" type="Float64">
2990.75 2991.67 2992.1 2991.67 2990.75 2331.25 2329.68 2329.13 2329.68 2331.25 1664.99 1665.16 1664.99 1665.16 1664.99 999.061 999.239 999.35 999.238 999.061 333.018 333.102 333.139 333.102 333.018 -333.018 -333.102 -333.139 -333.102 -333.018 -999.061 -999.239 -999.35 -999.238 -999.061 -1664.99 -1665.16 -1664.99 -1665.16 -1664.99 -2331.25 -2329.68 -2329.13 -2329.68 -2331.25 -2990.75 -2991.67 -2992.1 -2991.67 -2990.75 0.0299744 0.029949 0.029934 0.0299208 0.0299082 0.0232535 0.0232804 0.0232885 0.0232969 0.0233127 0.0166149 0.016624 0.016637 0.0166471 0.016649 0.00997124 0.00997601 0.00998248 0.00998758 0.0099896 0.00332441 0.00332562 0.00332754 0.0033291 0.00332976 -0.00332441 -0.00332562 -0.00332754 -0.0033291 -0.00332976 -0.00997124 -0.00997601 -0.00998248 -0.00998758 -0.0099896 -0.0166149 -0.016624 -0.016637 -0.0166471 -0.016649 -0.0232535 -0.0232804 -0.0232885 -0.0232969 -0.0233127 -0.0299744 -0.029949 -0.029934 -0.0299208 -0.0299082 
</DataArray>
<DataArray Name="Stress_22" format="ascii" type="Float64">
2997.74 2996.25 2996.47 2996.25 2997.74 2332.56 2329.85 2329.76 2329.85 2332.56 1665.99 1664.43 1663.84 1664.43 1665.99 999.459 998.74 998.416 998.74 999.459 333.123 332.931 332.832 332.93 333.123 -333.123 -332.931 -332.832 -332.93 -333.123 -999.459 -998.74 -998.416 -998.74 -999.459 -1665.99 -1664.43 -1663.84 -1664.43 -1665.99 -2332.56 -2329.85 -2329.76 -2329.85 -2332.56 -2997.74 -2996.25 -2996.47 -2996.25 -2997.74 0.0299974 0.0299748 0.0299691 0.0299641 0.0299781 0.0233322 0.0233251 0.0233101 0.0233046 0.0233293 0.0166612 0.0166587 0.0166525 0.0166529 0.0166667 0.00999412 0.00999388 0.0099925 0.00999418 0.0100011 0.00333095 0.00333105 0.00333098 0.00333174 0.00333392 -0.00333095 -0.00333105 -0.00333098 -0.00333174 -0.00333392 -0.00999412 -0.00999388 -0.0099925 -0.00999418 -0.0100011 -0.0166612 -0.0166587 -0.0166525 -0.0166529 -0.0166667 -0.0233322 -0.0233251 -0.0233101 -0.0233046 -0.0233293 -0.0299974 -0.0299748 -0.0299691 -0.0299641 -0.0299781 
</DataArray>
<DataArray Name="Stress_12" format="ascii" type="Float64">
-1.747 -0.997078 -1.87687e-05 0.997032 1.74697 0.692224 -0.204548 -1.98314e-05 0.204522 -0.692209 0.544609 0.526303 1.23486e-06 -0.526291 -0.544601 0.323604 0.409276 1.59856e-05 -0.409249 -0.323599 0.186561 0.266048 2.13796e-05 -0.266014 -0.186556 0.186561 0.266048 2.13796e-05 -0.266014 -0.186556 0.323604 0.409276 1.59856e-05 -0.409249 -0.323599 0.544609 0.526303 1.23486e-06 -0.526291 -0.544601 0.692224 -0.204548 -1.98314e-05 0.204522 -0.692209 -1.747 -0.997078 -1.87687e-05 0.997032 1.74697 4.24875e-05 1.47687e-05 8.92208e-06 1.32814e-05 1.81356e-05 2.01229e-06 1.38206e-05 1.17233e-05 8.0183e-06 -4.80214e-06 -1.09973e-05 -2.33145e-06 9.21831e-07 -3.12408e-06 -4.22847e-06 -1.59882e-05 -1.12116e-05 -8.753e-06 -7.92365e-06 -4.36409e-06 -1.75143e-05 -1.50462e-05 -1.28142e-05 -1.0252e-05 -4.74095e-06 -1.75143e-05 -1.50462e-05 -1.28142e-05 -1.0252e-05 -4.74095e-06 -1.59882e-05 -1.12116e-05 -8.753e-06 -7.92365e-06 -4.36409e-06 -1.09973e-05 -2.33145e-06 9.21831e-07 -3.12408e-06 -4.22847e-06 2.01229e-06 1.38206e-05 1.17233e-05 8.0183e-06 -4.80214e-06 4.24875e-05 1.47687e-05 8.92208e-06 1.32814e-05 1.81356e-05 
</DataArray>
<DataArray Name="Stress_13" format="ascii" type="Float64">
0 0 0 0 0 0 0 0 0 0 0 0 0 0 0 0 0 0 0 0 0 0 0 0 0 0 0 0 0 0 0 0 0 0 0 0 0 0 0 0 0 0 0 0 0 0 0 0 0 0 0 0 0 0 0 0 0 0 0 0 0 0 0 0 0 0 0 0 0 0 0 0 0 0 0 0 0 0 0 0 0 0 0 0 0 0 0 0 0 0 0 0 0 0 0 0 0 0 0 0 
</DataArray>
<DataArray Name="Stress_23" format="ascii" type="Float64">
0 0 0 0 0 0 0 0 0 0 0 0 0 0 0 0 0 0 0 0 0 0 0 0 0 0 0 0 0 0 0 0 0 0 0 0 0 0 0 0 0 0 0 0 0 0 0 0 0 0 0 0 0 0 0 0 0 0 0 0 0 0 0 0 0 0 0 0 0 0 0 0 0 0 0 0 0 0 0 0 0 0 0 0 0 0 0 0 0 0 0 0 0 0 0 0 0 0 0 0 
</DataArray>
<DataArray Name="Stress_33" format="ascii" type="Float64">
1193.2 1193.08 1193.22 1193.08 1193.2 929.261 928.406 928.278 928.406 929.261 663.696 663.418 663.266 663.418 663.696 398.204 398.096 398.053 398.096 398.204 132.728 132.707 132.694 132.707 132.728 -132.728 -132.707 -132.694 -132.707 -132.728 -398.204 -398.096 -398.053 -398.096 -398.204 -663.696 -663.418 -663.266 -663.418 -663.696 -929.261 -928.406 -928.278 -928.406 -929.261 -1193.2 -1193.08 -1193.22 -1193.08 -1193.2 0.0119494 0.0119397 0.0119356 0.011932 0.0119323 0.00928214 0.0092861 0.00928472 0.0092853 0.00929339 0.00663023 0.00663154 0.00663289 0.00663498 0.00663815 0.00397807 0.00397898 0.00398 0.00398135 0.00398315 0.00132607 0.00132633 0.0013267 0.00132717 0.00132774 -0.00132607 -0.00132633 -0.0013267 -0.00132717 -0.00132774 -0.00397807 -0.00397898 -0.00398 -0.00398135 -0.00398315 -0.00663023 -0.00663154 -0.00663289 -0.00663498 -0.00663815 -0.00928214 -0.0092861 -0.00928472 -0.0092853 -0.00929339 -0.0119494 -0.0119397 -0.0119356 -0.011932 -0.0119323 
</DataArray>
</CellData>
<Points>
<DataArray NumberOfComponents="3" format="ascii" type="Float64">
-0.05 -0.05 0 -0.05 0 0 -0.05 -0.04 0 -0.05 -0.03 0 -0.05 -0.02 0 -0.05 -0.01 0 0 0 0 -0.04 0 0 -0.03 0 0 -0.02 0 0 -0.01 0 0 0 -0.05 0 0 -0.01 0 0 -0.02 0 0 -0.03 0 0 -0.04 0 -0.01 -0.05 0 -0.02 -0.05 0 -0.03 -0.05 0 -0.04 -0.05 0 -0.04 -0.04 0 -0.04 -0.03 0 -0.04 -0.02 0 -0.04 -0.01 0 -0.03 -0.04 0 -0.03 -0.03 0 -0.03 -0.02 0 -0.03 -0.01 0 -0.02 -0.04 0 -0.02 -0.03 0 -0.02 -0.02 0 -0.02 -0.01 0 -0.01 -0.04 0 -0.01 -0.03 0 -0.01 -0.02 0 -0.01 -0.01 0 -0.05 0.05 0 -0.05 0.01 0 -0.05 0.02 0 -0.05 0.03 0 -0.05 0.04 0 0 0.05 0 -0.04 0.05 0 -0.03 0.05 0 -0.02 0.05 0 -0.01 0.05 0 0 0.04 0 0 0.03 0 0 0.02 0 0 0.01 0 -0.04 0.01 0 -0.04 0.02 0 -0.04 0.03 0 -0.04 0.04 0 -0.03 0.01 0 -0.03 0.02 0 -0.03 0.03 0 -0.03 0.04 0 -0.02 0.01 0 -0.02 0.02 0 -0.02 0.03 0 -0.02 0.04 0 -0.01 0.01 0 -0.01 0.02 0 -0.01 0.03 0 -0.01 0.04 0 0.05 0 0 0.01 0 0 0.02 0 0 0.03 0 0 0.04 0 0 0.05 -0.05 0 0.05 -0.01 0 0.05 -0.02 0 0.05 -0.03 0 0.05 -0.04 0 0.04 -0.05 0 0.03 -0.05 0 0.02 -0.05 0 0.01 -0.05 0 0.01 -0.04 0 0.01 -0.03 0 0.01 -0.02 0 0.01 -0.01 0 0.02 -0.04 0 0.02 -0.03 0 0.02 -0.02 0 0.02 -0.01 0 0.03 -0.04 0 0.03 -0.03 0 0.03 -0.02 0 0.03 -0.01 0 0.04 -0.04 0 0.04 -0.03 0 0.04 -0.02 0 0.04 -0.01 0 0.05 0.05 0 0.01 0.05 0 0.02 0.05 0 0.03 0.05 0 0.04 0.05 0 0.05 0.04 0 0.05 0.03 0 0.05 0.02 0 0.05 0.01 0 0.01 0.01 0 0.01 0.02 0 0.01 0.03 0 0.01 0.04 0 0.02 0.01 0 0.02 0.02 0 0.02 0.03 0 0.02 0.04 0 0.03 0.01 0 0.03 0.02 0 0.03 0.03 0 0.03 0.04 0 0.04 0.01 0 0.04 0.02 0 0.04 0.03 0 0.04 0.04 0 
</DataArray>
</Points>
<Cells>
<DataArray Name="connectivity" format="ascii" type="Int64">
0 19 20 2 19 18 24 20 18 17 28 24 17 16 32 28 16 11 15 32 2 20 21 3 20 24 25 21 24 28 29 25 28 32 33 29 32 15 14 33 3 21 22 4 21 25 26 22 25 29 30 26 29 33 34 30 33 14 13 34 4 22 23 5 22 26 27 23 26 30 31 27 30 34 35 31 34 13 12 35 5 23 7 1 23 27 8 7 27 31 9 8 31 35 10 9 35 12 6 10 1 7 50 37 7 8 54 50 8 9 58 54 9 10 62 58 10 6 49 62 37 50 51 38 50 54 55 51 54 58 59 55 58 62 63 59 62 49 48 63 38 51 52 39 51 55 56 52 55 59 60 56 59 63 64 60 63 48 47 64 39 52 53 40 52 56 57 53 56 60 61 57 60 64 65 61 64 47 46 65 40 53 42 36 53 57 43 42 57 61 44 43 61 65 45 44 65 46 41 45 11 79 80 15 79 78 84 80 78 77 88 84 77 76 92 88 76 71 75 92 15 80 81 14 80 84 85 81 84 88 89 85 88 92 93 89 92 75 74 93 14 81 82 13 81 85 86 82 85 89 90 86 89 93 94 90 93 74 73 94 13 82 83 12 82 86 87 83 86 90 91 87 90 94 95 91 94 73 72 95 12 83 67 6 83 87 68 67 87 91 69 68 91 95 70 69 95 72 66 70 6 67 105 49 67 68 109 105 68 69 113 109 69 70 117 113 70 66 104 117 49 105 106 48 105 109 110 106 109 113 114 110 113 117 118 114 117 104 103 118 48 106 107 47 106 110 111 107 110 114 115 111 114 118 119 115 118 103 102 119 47 107 108 46 107 111 112 108 111 115 116 112 115 119 120 116 119 102 101 120 46 108 97 41 108 112 98 97 112 116 99 98 116 120 100 99 120 101 96 100 
</DataArray>
<DataArray Name="offsets" format="ascii" type="Int64">
4 8 12 16 20 24 28 32 36 40 44 48 52 56 60 64 68 72 76 80 84 88 92 96 100 104 108 112 116 120 124 128 132 136 140 144 148 152 156 160 164 168 172 176 180 184 188 192 196 200 204 208 212 216 220 224 228 232 236 240 244 248 252 256 260 264 268 272 276 280 284 288 292 296 300 304 308 312 316 320 324 328 332 336 340 344 348 352 356 360 364 368 372 376 380 384 388 392 396 400 
</DataArray>
<DataArray Name="types" format="ascii" type="Int8">
9 9 9 9 9 9 9 9 9 9 9 9 9 9 9 9 9 9 9 9 9 9 9 9 9 9 9 9 9 9 9 9 9 9 9 9 9 9 9 9 9 9 9 9 9 9 9 9 9 9 9 9 9 9 9 9 9 9 9 9 9 9 9 9 9 9 9 9 9 9 9 9 9 9 9 9 9 9 9 9 9 9 9 9 9 9 9 9 9 9 9 9 9 9 9 9 9 9 9 9 
</DataArray>
</Cells>
</Piece>
</UnstructuredGrid>
</VTKFile>
