<?xml version="1.0"?>
<VTKFile byte_order="LittleEndian" type="UnstructuredGrid" version="0.1">
<UnstructuredGrid>
<Piece NumberOfCells="100" NumberOfPoints="121">
<PointData>
<DataArray Name="Warping_X" format="ascii" type="Float64">
-2.34953 -0.000552287 -1.50559 -0.847139 -0.376784 -0.094605 -0.00527172 -0.380155 -0.570431 -0.571374 -0.382986 -2.35428 -0.0993242 -0.381503 -0.851859 -1.51031 -2.73304 -2.92237 -2.92142 -2.73019 -1.88491 -1.22666 -0.756366 -0.474206 -2.07461 -1.41669 -0.946597 -0.664477 -2.07556 -1.41763 -0.94754 -0.665421 -1.88775 -1.22949 -0.759196 -0.477037 -2.34953 -0.094605 -0.376784 -0.847139 -1.50559 -2.35428 -2.73019 -2.92142 -2.92237 -2.73304 -1.51031 -0.851859 -0.381503 -0.0993242 -0.474206 -0.756366 -1.22666 -1.88491 -0.664477 -0.946597 -1.41669 -2.07461 -0.665421 -0.94754 -1.41763 -2.07556 -0.477037 -0.759196 -1.22949 -1.88775 4.72206 0.56273 1.31937 2.26471 3.39889 2.36473 4.62767 4.34445 3.87227 3.21134 1.04045 -0.0947048 -1.03984 -1.79412 -0.943124 -0.284329 0.186287 0.468619 -0.188634 0.471611 0.94261 1.22518 0.755413 1.41591 1.88754 2.17043 1.88854 2.54933 3.0214 3.30453 2.36473 -1.79412 -1.03984 -0.0947048 1.04045 3.21134 3.87227 4.34445 4.62767 0.468619 0.186287 -0.284329 -0.943124 1.22518 0.94261 0.471611 -0.188634 2.17043 1.88754 1.41591 0.755413 3.30453 3.0214 2.54933 1.88854 
</DataArray>
<DataArray Name="Warping_Y" format="ascii" type="Float64">
2.35265 -1.64735e-13 1.88394 1.41345 0.942371 0.471188 4.66701e-13 -3.8451e-14 8.79295e-14 2.14257e-13 3.40441e-13 -2.34325 -0.469304 -0.938603 -1.4078 -1.87641 -1.40811 -0.466427 0.475866 1.41754 1.13291 0.849328 0.566167 0.283081 0.380516 0.285097 0.189991 0.0949882 -0.372964 -0.279434 -0.186217 -0.0931017 -1.12537 -0.843671 -0.562396 -0.281196 -2.35265 -0.471188 -0.942371 -1.41345 -1.88394 2.34325 -1.41754 -0.475866 0.466427 1.40811 1.87641 1.4078 0.938603 0.469304 -0.283081 -0.566167 -0.849328 -1.13291 -0.0949882 -0.189991 -0.285097 -0.380516 0.0931017 0.186217 0.279434 0.372964 0.281196 0.562396 0.843671 1.12537 -4.87717e-13 3.22724e-13 1.0805e-13 -1.37109e-13 -3.58524e-13 -7.07194 -1.41506 -2.83019 -4.24527 -5.65961 -6.13424 -5.18975 -4.24339 -3.29551 -2.63444 -1.97573 -1.31714 -0.658553 -3.39363 -2.54435 -1.69592 -0.847876 -4.15097 -3.11232 -2.07444 -1.03711 -4.90611 -3.67901 -2.45246 -1.22617 7.07194 3.29551 4.24339 5.18975 6.13424 5.65961 4.24527 2.83019 1.41506 0.658553 1.31714 1.97573 2.63444 0.847876 1.69592 2.54435 3.39363 1.03711 2.07444 3.11232 4.15097 1.22617 2.45246 3.67901 4.90611 
</DataArray>
<DataArray Name="Warping_Z" format="ascii" type="Float64">
0 0 0 0 0 0 0 0 0 0 0 0 0 0 0 0 0 0 0 0 0 0 0 0 0 0 0 0 0 0 0 0 0 0 0 0 0 0 0 0 0 0 0 0 0 0 0 0 0 0 0 0 0 0 0 0 0 0 0 0 0 0 0 0 0 0 0 0 0 0 0 0 0 0 0 0 0 0 0 0 0 0 0 0 0 0 0 0 0 0 0 0 0 0 0 0 0 0 0 0 0 0 0 0 0 0 0 0 0 0 0 0 0 0 0 0 0 0 0 0 0 
</DataArray>
</PointData>
<CellData>
<DataArray Name="MaterialId" format="ascii" type="Float64">
1 1 1 1 1 1 1 1 1 1 1 1 1 1 1 1 1 1 1 1 1 1 1 1 1 1 1 1 1 1 1 1 1 1 1 1 1 1 1 1 1 1 1 1 1 1 1 1 1 1 2 2 2 2 2 2 2 2 2 2 2 2 2 2 2 2 2 2 2 2 2 2 2 2 2 2 2 2 2 2 2 2 2 2 2 2 2 2 2 2 2 2 2 2 2 2 2 2 2 2 
</DataArray>
<DataArray Name="FiberAngle" format="ascii" type="Float64">
0 0 0 0 0 0 0 0 0 0 0 0 0 0 0 0 0 0 0 0 0 0 0 0 0 0 0 0 0 0 0 0 0 0 0 0 0 0 0 0 0 0 0 0 0 0 0 0 0 0 0 0 0 0 0 0 0 0 0 0 0 0 0 0 0 0 0 0 0 0 0 0 0 0 0 0 0 0 0 0 0 0 0 0 0 0 0 0 0 0 0 0 0 0 0 0 0 0 0 0 
</DataArray>
<DataArray Name="Strain_11" format="ascii" type="Float64">
-37.9988 -19.0467 -0.0948032 18.8571 37.8092 -37.942 -18.9866 -0.0944755 18.7978 37.753 -37.955 -19.0131 -0.0943382 18.8243 37.7662 -37.9591 -19.0251 -0.0943342 18.8364 37.7703 -37.9602 -19.0273 -0.0943499 18.8386 37.7713 -37.9602 -19.0273 -0.0943499 18.8386 37.7713 -37.9591 -19.0251 -0.0943342 18.8364 37.7703 -37.955 -19.0131 -0.0943382 18.8243 37.7662 -37.942 -18.9866 -0.0944755 18.7978 37.753 -37.9988 -19.0467 -0.0948032 18.8571 37.8092 56.3677 75.4388 94.4589 113.414 132.354 56.736 75.5215 94.4173 113.327 132.287 56.766 75.6131 94.4617 113.364 132.299 56.7867 75.6444 94.509 113.398 132.309 56.7972 75.6603 94.5293 113.414 132.315 56.7972 75.6603 94.5293 113.414 132.315 56.7867 75.6444 94.509 113.398 132.309 56.766 75.6131 94.4617 113.364 132.299 56.736 75.5215 94.4173 113.327 132.287 56.3677 75.4388 94.4589 113.414 132.354 
</DataArray>
<DataArray Name="Strain_22" format="ascii" type="Float64">
-37.6672 -18.9991 -0.0943704 18.8103 37.4791 -37.7034 -18.95 -0.0944663 18.7612 37.5152 -37.712 -18.9133 -0.0944319 18.7246 37.5237 -37.7134 -18.9044 -0.0943634 18.7158 37.525 -37.7134 -18.9035 -0.0943256 18.7149 37.525 -37.7134 -18.9035 -0.0943256 18.7149 37.525 -37.7134 -18.9044 -0.0943634 18.7158 37.525 -37.712 -18.9133 -0.0944319 18.7246 37.5237 -37.7034 -18.95 -0.0944663 18.7612 37.5152 -37.6672 -18.9991 -0.0943704 18.8103 37.4791 56.3952 75.5408 94.4268 113.346 132.023 56.3661 75.3998 94.3964 113.287 132.072 56.3897 75.3513 94.3155 113.221 132.081 56.3943 75.3313 94.2685 113.181 132.071 56.3928 75.3215 94.2495 113.164 132.061 56.3928 75.3215 94.2495 113.164 132.061 56.3943 75.3313 94.2685 113.181 132.071 56.3897 75.3513 94.3155 113.221 132.081 56.3661 75.3998 94.3964 113.287 132.072 56.3952 75.5408 94.4268 113.346 132.023 
</DataArray>
<DataArray Name="Strain_12" format="ascii" type="Float64">
0.153917 -0.0993499 -0.107983 -0.0991506 0.153592 0.0774598 -0.0224429 -0.107992 -0.0227458 0.0767521 0.01601 -0.00123994 -0.0278383 -0.00165353 0.0155159 0.00143083 0.000537231 -0.00291838 0.000291082 0.00116343 -0.000156773 0.000238506 0.000168355 0.000162318 -0.00023972 0.000156773 -0.000238506 -0.000168355 -0.000162318 0.00023972 -0.00143083 -0.000537231 0.00291838 -0.000291082 -0.00116343 -0.01601 0.00123994 0.0278383 0.00165353 -0.0155159 -0.0774598 0.0224429 0.107992 0.0227458 -0.0767521 -0.153917 0.0993499 0.107983 0.0991506 -0.153592 -0.76609 -0.24342 -0.118916 -0.0716796 0.174224 -0.435666 -0.438155 -0.228286 -0.0266704 0.0975037 -0.274741 -0.288878 -0.193469 -0.0499946 0.0129186 -0.163636 -0.159759 -0.115234 -0.0528003 -0.0127664 -0.0542974 -0.051378 -0.0384897 -0.0211011 -0.00741911 0.0542974 0.051378 0.0384897 0.0211011 0.00741911 0.163636 0.159759 0.115234 0.0528003 0.0127664 0.274741 0.288878 0.193469 0.0499946 -0.0129186 0.435666 0.438155 0.228286 0.0266704 -0.0975037 0.76609 0.24342 0.118916 0.0716796 -0.174224 
</DataArray>
<DataArray Name="Strain_13" format="ascii" type="Float64">
0 0 0 0 0 0 0 0 0 0 0 0 0 0 0 0 0 0 0 0 0 0 0 0 0 0 0 0 0 0 0 0 0 0 0 0 0 0 0 0 0 0 0 0 0 0 0 0 0 0 0 0 0 0 0 0 0 0 0 0 0 0 0 0 0 0 0 0 0 0 0 0 0 0 0 0 0 0 0 0 0 0 0 0 0 0 0 0 0 0 0 0 0 0 0 0 0 0 0 0 
</DataArray>
<DataArray Name="Strain_23" format="ascii" type="Float64">
0 0 0 0 0 0 0 0 0 0 0 0 0 0 0 0 0 0 0 0 0 0 0 0 0 0 0 0 0 0 0 0 0 0 0 0 0 0 0 0 0 0 0 0 0 0 0 0 0 0 0 0 0 0 0 0 0 0 0 0 0 0 0 0 0 0 0 0 0 0 0 0 0 0 0 0 0 0 0 0 0 0 0 0 0 0 0 0 0 0 0 0 0 0 0 0 0 0 0 0 
</DataArray>
<DataArray Name="Strain_33" format="ascii" type="Float64">
0.045 0.035 0.025 0.015 0.005 0.045 0.035 0.025 0.015 0.005 0.045 0.035 0.025 0.015 0.005 0.045 0.035 0.025 0.015 0.005 0.045 0.035 0.025 0.015 0.005 0.045 0.035 0.025 0.015 0.005 0.045 0.035 0.025 0.015 0.005 0.045 0.035 0.025 0.015 0.005 0.045 0.035 0.025 0.015 0.005 0.045 0.035 0.025 0.015 0.005 -0.005 -0.015 -0.025 -0.035 -0.045 -0.005 -0.015 -0.025 -0.035 -0.045 -0.005 -0.015 -0.025 -0.035 -0.045 -0.005 -0.015 -0.025 -0.035 -0.045 -0.005 -0.015 -0.025 -0.035 -0.045 -0.005 -0.015 -0.025 -0.035 -0.045 -0.005 -0.015 -0.025 -0.035 -0.045 -0.005 -0.015 -0.025 -0.035 -0.045 -0.005 -0.015 -0.025 -0.035 -0.045 -0.005 -0.015 -0.025 -0.035 -0.045 
</DataArray>
<DataArray Name="Stress_11" format="ascii" type="Float64">
-5267.15 -2643.08 -12.4606 2618.16 5242.24 -5261.84 -2635.04 -12.4269 2610.2 5237.01 -5263.53 -2636.96 -12.4107 2612.14 5238.7 -5264.03 -2638.05 -12.4083 2613.23 5239.2 -5264.14 -2638.27 -12.409 2613.45 5239.31 -5264.14 -2638.27 -12.409 2613.45 5239.31 -5264.03 -2638.05 -12.4083 2613.23 5239.2 -5263.53 -2636.96 -12.4107 2612.14 5238.7 -5261.84 -2635.04 -12.4269 2610.2 5237.01 -5267.15 -2643.08 -12.4606 2618.16 5242.24 7.82947 10.48 13.1177 15.7491 18.3721 7.86959 10.4853 13.1122 15.7378 18.366 7.87357 10.4941 13.1149 15.74 18.3676 7.876 10.4971 13.1189 15.7427 18.3684 7.87713 10.4985 13.1206 15.744 18.3688 7.87713 10.4985 13.1206 15.744 18.3688 7.876 10.4971 13.1189 15.7427 18.3684 7.87357 10.4941 13.1149 15.74 18.3676 7.86959 10.4853 13.1122 15.7378 18.366 7.82947 10.48 13.1177 15.7491 18.3721 
</DataArray>
<DataArray Name="Stress_22" format="ascii" type="Float64">
-5239.52 -2639.11 -12.4246 2614.26 5214.74 -5241.96 -2631.99 -12.4261 2607.15 5217.19 -5243.28 -2628.65 -12.4185 2603.82 5218.49 -5243.55 -2628 -12.4108 2603.18 5218.76 -5243.58 -2627.95 -12.407 2603.14 5218.78 -5243.58 -2627.95 -12.407 2603.14 5218.78 -5243.55 -2628 -12.4108 2603.18 5218.76 -5243.28 -2628.65 -12.4185 2603.82 5218.49 -5241.96 -2631.99 -12.4261 2607.15 5217.19 -5239.52 -2639.11 -12.4246 2614.26 5214.74 7.83176 10.4885 13.115 15.7434 18.3445 7.83876 10.4752 13.1105 15.7345 18.3481 7.84221 10.4723 13.1027 15.7281 18.3494 7.8433 10.471 13.0988 15.7246 18.3486 7.84343 10.4703 13.0973 15.7232 18.3477 7.84343 10.4703 13.0973 15.7232 18.3477 7.8433 10.471 13.0988 15.7246 18.3486 7.84221 10.4723 13.1027 15.7281 18.3494 7.83876 10.4752 13.1105 15.7345 18.3481 7.83176 10.4885 13.115 15.7434 18.3445 
</DataArray>
<DataArray Name="Stress_12" format="ascii" type="Float64">
6.41325 -4.13961 -4.49931 -4.13131 6.39973 3.22752 -0.935129 -4.4997 -0.947749 3.19803 0.667091 -0.0516645 -1.15994 -0.0688977 0.646502 0.0596185 0.0223848 -0.1216 0.0121285 0.0484766 -0.00653227 0.00993781 0.00701484 0.00676332 -0.00998842 0.00653227 -0.00993781 -0.00701484 -0.00676332 0.00998842 -0.0596185 -0.0223848 0.1216 -0.0121285 -0.0484766 -0.667091 0.0516645 1.15994 0.0688977 -0.646502 -3.22752 0.935129 4.4997 0.947749 -3.19803 -6.41325 4.13961 4.49931 4.13131 -6.39973 -0.0319207 -0.0101426 -0.00495487 -0.00298667 0.00725937 -0.0181529 -0.0182566 -0.00951197 -0.00111128 0.00406269 -0.0114476 -0.0120367 -0.00806126 -0.00208313 0.000538279 -0.00681824 -0.00665666 -0.00480147 -0.00220003 -0.000531938 -0.00226241 -0.00214077 -0.00160375 -0.000879218 -0.000309132 0.00226241 0.00214077 0.00160375 0.000879218 0.000309132 0.00681824 0.00665666 0.00480147 0.00220003 0.000531938 0.0114476 0.0120367 0.00806126 0.00208313 -0.000538279 0.0181529 0.0182566 0.00951197 0.00111128 -0.00406269 0.0319207 0.0101426 0.00495487 0.00298667 -0.00725937 
</DataArray>
<DataArray Name="Stress_13" format="ascii" type="Float64">
0 0 0 0 0 0 0 0 0 0 0 0 0 0 0 0 0 0 0 0 0 0 0 0 0 0 0 0 0 0 0 0 0 0 0 0 0 0 0 0 0 0 0 0 0 0 0 0 0 0 0 0 0 0 0 0 0 0 0 0 0 0 0 0 0 0 0 0 0 0 0 0 0 0 0 0 0 0 0 0 0 0 0 0 0 0 0 0 0 0 0 0 0 0 0 0 0 0 0 0 
</DataArray>
<DataArray Name="Stress_23" format="ascii" type="Float64">
0 0 0 0 0 0 0 0 0 0 0 0 0 0 0 0 0 0 0 0 0 0 0 0 0 0 0 0 0 0 0 0 0 0 0 0 0 0 0 0 0 0 0 0 0 0 0 0 0 0 0 0 0 0 0 0 0 0 0 0 0 0 0 0 0 0 0 0 0 0 0 0 0 0 0 0 0 0 0 0 0 0 0 0 0 0 0 0 0 0 0 0 0 0 0 0 0 0 0 0 
</DataArray>
<DataArray Name="Stress_33" format="ascii" type="Float64">
-2096.83 -1052.94 -2.47705 1047.98 2091.9 -2096.26 -1049.91 -2.47061 1044.97 2091.34 -2096.86 -1049.62 -2.46584 1044.69 2091.94 -2097.02 -1049.71 -2.46382 1044.78 2092.09 -2097.04 -1049.74 -2.46321 1044.82 2092.12 -2097.04 -1049.74 -2.46321 1044.82 2092.12 -2097.02 -1049.71 -2.46382 1044.78 2092.09 -2096.86 -1049.62 -2.46584 1044.69 2091.94 -2096.26 -1049.91 -2.47061 1044.97 2091.34 -2096.83 -1052.94 -2.47705 1047.98 2091.9 3.13175 4.19221 5.24405 6.295 7.33882 3.14117 4.19059 5.24205 6.29095 7.33831 3.14266 4.19179 5.24103 6.29013 7.3389 3.14336 4.1921 5.24104 6.28997 7.33891 3.14361 4.19227 5.24108 6.28995 7.3388 3.14361 4.19227 5.24108 6.28995 7.3388 3.14336 4.1921 5.24104 6.28997 7.33891 3.14266 4.19179 5.24103 6.29013 7.3389 3.14117 4.19059 5.24205 6.29095 7.33831 3.13175 4.19221 5.24405 6.295 7.33882 
</DataArray>
</CellData>
<Points>
<DataArray NumberOfComponents="3" format="ascii" type="Float64">
-0.05 -0.05 0 -0.05 0 0 -0.05 -0.04 0 -0.05 -0.03 0 -0.05 -0.02 0 -0.05 -0.01 0 0 0 0 -0.04 0 0 -0.03 0 0 -0.02 0 0 -0.01 0 0 0 -0.05 0 0 -0.01 0 0 -0.02 0 0 -0.03 0 0 -0.04 0 -0.01 -0.05 0 -0.02 -0.05 0 -0.03 -0.05 0 -0.04 -0.05 0 -0.04 -0.04 0 -0.04 -0.03 0 -0.04 -0.02 0 -0.04 -0.01 0 -0.03 -0.04 0 -0.03 -0.03 0 -0.03 -0.02 0 -0.03 -0.01 0 -0.02 -0.04 0 -0.02 -0.03 0 -0.02 -0.02 0 -0.02 -0.01 0 -0.01 -0.04 0 -0.01 -0.03 0 -0.01 -0.02 0 -0.01 -0.01 0 -0.05 0.05 0 -0.05 0.01 0 -0.05 0.02 0 -0.05 0.03 0 -0.05 0.04 0 0 0.05 0 -0.04 0.05 0 -0.03 0.05 0 -0.02 0.05 0 -0.01 0.05 0 0 0.04 0 0 0.03 0 0 0.02 0 0 0.01 0 -0.04 0.01 0 -0.04 0.02 0 -0.04 0.03 0 -0.04 0.04 0 -0.03 0.01 0 -0.03 0.02 0 -0.03 0.03 0 -0.03 0.04 0 -0.02 0.01 0 -0.02 0.02 0 -0.02 0.03 0 -0.02 0.04 0 -0.01 0.01 0 -0.01 0.02 0 -0.01 0.03 0 -0.01 0.04 0 0.05 0 0 0.01 0 0 0.02 0 0 0.03 0 0 0.04 0 0 0.05 -0.05 0 0.05 -0.01 0 0.05 -0.02 0 0.05 -0.03 0 0.05 -0.04 0 0.04 -0.05 0 0.03 -0.05 0 0.02 -0.05 0 0.01 -0.05 0 0.01 -0.04 0 0.01 -0.03 0 0.01 -0.02 0 0.01 -0.01 0 0.02 -0.04 0 0.02 -0.03 0 0.02 -0.02 0 0.02 -0.01 0 0.03 -0.04 0 0.03 -0.03 0 0.03 -0.02 0 0.03 -0.01 0 0.04 -0.04 0 0.04 -0.03 0 0.04 -0.02 0 0.04 -0.01 0 0.05 0.05 0 0.01 0.05 0 0.02 0.05 0 0.03 0.05 0 0.04 0.05 0 0.05 0.04 0 0.05 0.03 0 0.05 0.02 0 0.05 0.01 0 0.01 0.01 0 0.01 0.02 0 0.01 0.03 0 0.01 0.04 0 0.02 0.01 0 0.02 0.02 0 0.02 0.03 0 0.02 0.04 0 0.03 0.01 0 0.03 0.02 0 0.03 0.03 0 0.03 0.04 0 0.04 0.01 0 0.04 0.02 0 0.04 0.03 0 0.04 0.04 0 
</DataArray>
</Points>
<Cells>
<DataArray Name="connectivity" format="ascii" type="Int64">
0 19 20 2 19 18 24 20 18 17 28 24 17 16 32 28 16 11 15 32 2 20 21 3 20 24 25 21 24 28 29 25 28 32 33 29 32 15 14 33 3 21 22 4 21 25 26 22 25 29 30 26 29 33 34 30 33 14 13 34 4 22 23 5 22 26 27 23 26 30 31 27 30 34 35 31 34 13 12 35 5 23 7 1 23 27 8 7 27 31 9 8 31 35 10 9 35 12 6 10 1 7 50 37 7 8 54 50 8 9 58 54 9 10 62 58 10 6 49 62 37 50 51 38 50 54 55 51 54 58 59 55 58 62 63 59 62 49 48 63 38 51 52 39 51 55 56 52 55 59 60 56 59 63 64 60 63 48 47 64 39 52 53 40 52 56 57 53 56 60 61 57 60 64 65 61 64 47 46 65 40 53 42 36 53 57 43 42 57 61 44 43 61 65 45 44 65 46 41 45 11 79 80 15 79 78 84 80 78 77 88 84 77 76 92 88 76 71 75 92 15 80 81 14 80 84 85 81 84 88 89 85 88 92 93 89 92 75 74 93 14 81 82 13 81 85 86 82 85 89 90 86 89 93 94 90 93 74 73 94 13 82 83 12 82 86 87 83 86 90 91 87 90 94 95 91 94 73 72 95 12 83 67 6 83 87 68 67 87 91 69 68 91 95 70 69 95 72 66 70 6 67 105 49 67 68 109 105 68 69 113 109 69 70 117 113 70 66 104 117 49 105 106 48 105 109 110 106 109 113 114 110 113 117 118 114 117 104 103 118 48 106 107 47 106 110 111 107 110 114 115 111 114 118 119 115 118 103 102 119 47 107 108 46 107 111 112 108 111 115 116 112 115 119 120 116 119 102 101 120 46 108 97 41 108 112 98 97 112 116 99 98 116 120 100 99 120 101 96 100 
</DataArray>
<DataArray Name="offsets" format="ascii" type="Int64">
4 8 12 16 20 24 28 32 36 40 44 48 52 56 60 64 68 72 76 80 84 88 92 96 100 104 108 112 116 120 124 128 132 136 140 144 148 152 156 160 164 168 172 176 180 184 188 192 196 200 204 208 212 216 220 224 228 232 236 240 244 248 252 256 260 264 268 272 276 280 284 288 292 296 300 304 308 312 316 320 324 328 332 336 340 344 348 352 356 360 364 368 372 376 380 384 388 392 396 400 
</DataArray>
<DataArray Name="types" format="ascii" type="Int8">
9 9 9 9 9 9 9 9 9 9 9 9 9 9 9 9 9 9 9 9 9 9 9 9 9 9 9 9 9 9 9 9 9 9 9 9 9 9 9 9 9 9 9 9 9 9 9 9 9 9 9 9 9 9 9 9 9 9 9 9 9 9 9 9 9 9 9 9 9 9 9 9 9 9 9 9 9 9 9 9 9 9 9 9 9 9 9 9 9 9 9 9 9 9 9 9 9 9 9 9 
</DataArray>
</Cells>
</Piece>
</UnstructuredGrid>
</VTKFile>
