<?xml version="1.0"?>
<VTKFile byte_order="LittleEndian" type="UnstructuredGrid" version="0.1">
<UnstructuredGrid>
<Piece NumberOfCells="100" NumberOfPoints="121">
<PointData>
<DataArray Name="Warping_X" format="ascii" type="Float64">
0.0786009 0.0199938 0.0575445 0.0411162 0.0293808 0.0223404 0.00013153 0.0254689 0.0262203 0.0222478 0.0135515 0.0587395 0.00247814 0.00951852 0.0212539 0.0376824 0.0721854 0.0809052 0.0848775 0.0841023 0.0630126 0.0465892 0.0348554 0.0278155 0.0637497 0.0473344 0.0356057 0.0285668 0.0597773 0.043362 0.0316332 0.0245943 0.0510953 0.0346718 0.022938 0.0158981 0.0786009 0.0223404 0.0293808 0.0411162 0.0575445 0.0587395 0.0841023 0.0848775 0.0809052 0.0721854 0.0376824 0.0212539 0.00951852 0.00247814 0.0278155 0.0348554 0.0465892 0.0630126 0.0285668 0.0356057 0.0473344 0.0637497 0.0245943 0.0316332 0.043362 0.0597773 0.0158981 0.022938 0.0346718 0.0510953 -0.137796 -0.0180361 -0.0409104 -0.0684927 -0.100786 -0.0789802 -0.135441 -0.128374 -0.116593 -0.100103 -0.0419433 -0.00962512 0.0179519 0.0407674 0.019535 0.00309802 -0.00864387 -0.0156881 -0.00328558 -0.0197587 -0.0315102 -0.0385604 -0.0308356 -0.0473151 -0.0590823 -0.0661403 -0.0631031 -0.0795899 -0.0913681 -0.0984323 -0.0789802 0.0407674 0.0179519 -0.00962512 -0.0419433 -0.100103 -0.116593 -0.128374 -0.135441 -0.0156881 -0.00864387 0.00309802 0.019535 -0.0385604 -0.0315102 -0.0197587 -0.00328558 -0.0661403 -0.0590823 -0.0473151 -0.0308356 -0.0984323 -0.0913681 -0.0795899 -0.0631031 
</DataArray>
<DataArray Name="Warping_Y" format="ascii" type="Float64">
-0.0387187 1.17376e-15 -0.0310203 -0.0232776 -0.0155202 -0.00776015 4.40238e-15 1.83152e-15 2.47611e-15 3.11832e-15 3.76034e-15 0.0784443 0.0157052 0.0314102 0.0471127 0.0628006 0.0551124 0.0316174 0.00810714 -0.0153877 -0.0122821 -0.00920275 -0.00613389 -0.00306688 0.00649013 0.00487484 0.00325173 0.00162604 0.0252895 0.0189599 0.0126381 0.00631889 0.0440619 0.0330376 0.0220238 0.0110119 0.0387187 0.00776015 0.0155202 0.0232776 0.0310203 -0.0784443 0.0153877 -0.00810714 -0.0316174 -0.0551124 -0.0628006 -0.0471127 -0.0314102 -0.0157052 0.00306688 0.00613389 0.00920275 0.0122821 -0.00162604 -0.00325173 -0.00487484 -0.00649013 -0.00631889 -0.0126381 -0.0189599 -0.0252895 -0.0110119 -0.0220238 -0.0330376 -0.0440619 -3.60925e-15 -2.38072e-16 -3.07083e-15 -4.42636e-15 -4.54778e-15 0.196425 0.0393017 0.0786055 0.117908 0.157192 0.17303 0.149465 0.125853 0.102203 0.0817135 0.0612827 0.0408547 0.0204269 0.100655 0.0754696 0.0503052 0.0251506 0.119551 0.0896406 0.0597495 0.0298721 0.138392 0.103779 0.0691811 0.034589 -0.196425 -0.102203 -0.125853 -0.149465 -0.17303 -0.157192 -0.117908 -0.0786055 -0.0393017 -0.0204269 -0.0408547 -0.0612827 -0.0817135 -0.0251506 -0.0503052 -0.0754696 -0.100655 -0.0298721 -0.0597495 -0.0896406 -0.119551 -0.034589 -0.0691811 -0.103779 -0.138392 
</DataArray>
<DataArray Name="Warping_Z" format="ascii" type="Float64">
0 0 0 0 0 0 0 0 0 0 0 0 0 0 0 0 0 0 0 0 0 0 0 0 0 0 0 0 0 0 0 0 0 0 0 0 0 0 0 0 0 0 0 0 0 0 0 0 0 0 0 0 0 0 0 0 0 0 0 0 0 0 0 0 0 0 0 0 0 0 0 0 0 0 0 0 0 0 0 0 0 0 0 0 0 0 0 0 0 0 0 0 0 0 0 0 0 0 0 0 0 0 0 0 0 0 0 0 0 0 0 0 0 0 0 0 0 0 0 0 0 
</DataArray>
</PointData>
<CellData>
<DataArray Name="MaterialId" format="ascii" type="Float64">
1 1 1 1 1 1 1 1 1 1 1 1 1 1 1 1 1 1 1 1 1 1 1 1 1 1 1 1 1 1 1 1 1 1 1 1 1 1 1 1 1 1 1 1 1 1 1 1 1 1 2 2 2 2 2 2 2 2 2 2 2 2 2 2 2 2 2 2 2 2 2 2 2 2 2 2 2 2 2 2 2 2 2 2 2 2 2 2 2 2 2 2 2 2 2 2 2 2 2 2 
</DataArray>
<DataArray Name="FiberAngle" format="ascii" type="Float64">
0 0 0 0 0 0 0 0 0 0 0 0 0 0 0 0 0 0 0 0 0 0 0 0 0 0 0 0 0 0 0 0 0 0 0 0 0 0 0 0 0 0 0 0 0 0 0 0 0 0 0 0 0 0 0 0 0 0 0 0 0 0 0 0 0 0 0 0 0 0 0 0 0 0 0 0 0 0 0 0 0 0 0 0 0 0 0 0 0 0 0 0 0 0 0 0 0 0 0 0 
</DataArray>
<DataArray Name="Strain_11" format="ascii" type="Float64">
0.548473 0.0756151 -0.397235 -0.870085 -1.34294 0.547054 0.0741173 -0.397243 -0.868605 -1.34154 0.54738 0.0747764 -0.397247 -0.869269 -1.34187 0.547482 0.0750773 -0.397247 -0.869569 -1.34197 0.547508 0.0751329 -0.397246 -0.869625 -1.342 0.547508 0.0751329 -0.397246 -0.869625 -1.342 0.547482 0.0750773 -0.397247 -0.869569 -1.34197 0.54738 0.0747764 -0.397247 -0.869269 -1.34187 0.547054 0.0741173 -0.397243 -0.868605 -1.34154 0.548473 0.0756151 -0.397235 -0.870085 -1.34294 -1.80598 -2.2818 -2.75635 -3.22928 -3.70184 -1.81517 -2.28387 -2.75532 -3.22712 -3.70017 -1.81591 -2.28615 -2.75642 -3.22803 -3.70048 -1.81643 -2.28693 -2.7576 -3.22888 -3.70073 -1.81669 -2.28733 -2.75811 -3.22929 -3.70087 -1.81669 -2.28733 -2.75811 -3.22929 -3.70087 -1.81643 -2.28693 -2.7576 -3.22888 -3.70073 -1.81591 -2.28615 -2.75642 -3.22803 -3.70048 -1.81517 -2.28387 -2.75532 -3.22712 -3.70017 -1.80598 -2.2818 -2.75635 -3.22928 -3.70184 
</DataArray>
<DataArray Name="Strain_22" format="ascii" type="Float64">
0.540198 0.0744277 -0.397246 -0.868918 -1.33471 0.541102 0.0732034 -0.397243 -0.867693 -1.33561 0.541316 0.0722876 -0.397244 -0.86678 -1.33582 0.541352 0.0720663 -0.397246 -0.866561 -1.33585 0.541352 0.0720418 -0.397247 -0.866537 -1.33585 0.541352 0.0720418 -0.397247 -0.866537 -1.33585 0.541352 0.0720663 -0.397246 -0.866561 -1.33585 0.541316 0.0722876 -0.397244 -0.86678 -1.33582 0.541102 0.0732034 -0.397243 -0.867693 -1.33561 0.540198 0.0744277 -0.397246 -0.868918 -1.33471 -1.80666 -2.28435 -2.75555 -3.22759 -3.69359 -1.80594 -2.28083 -2.7548 -3.22612 -3.69481 -1.80653 -2.27962 -2.75278 -3.22447 -3.69503 -1.80664 -2.27912 -2.7516 -3.22347 -3.69479 -1.8066 -2.27887 -2.75113 -3.22305 -3.69454 -1.8066 -2.27887 -2.75113 -3.22305 -3.69454 -1.80664 -2.27912 -2.7516 -3.22347 -3.69479 -1.80653 -2.27962 -2.75278 -3.22447 -3.69503 -1.80594 -2.28083 -2.7548 -3.22612 -3.69481 -1.80666 -2.28435 -2.75555 -3.22759 -3.69359 
</DataArray>
<DataArray Name="Strain_12" format="ascii" type="Float64">
-0.00384023 0.00247878 0.00269417 0.00247381 -0.00383213 -0.00193263 0.000559952 0.00269441 0.000567508 -0.00191497 -0.000399451 3.09365e-05 0.000694568 4.12557e-05 -0.000387123 -3.56994e-05 -1.34039e-05 7.28137e-05 -7.26251e-06 -2.90276e-05 3.9115e-06 -5.95073e-06 -4.20046e-06 -4.04985e-06 5.98103e-06 -3.9115e-06 5.95073e-06 4.20046e-06 4.04985e-06 -5.98103e-06 3.56994e-05 1.34039e-05 -7.28137e-05 7.26251e-06 2.90276e-05 0.000399451 -3.09365e-05 -0.000694568 -4.12557e-05 0.000387123 0.00193263 -0.000559952 -0.00269441 -0.000567508 0.00191497 0.00384023 -0.00247878 -0.00269417 -0.00247381 0.00383213 0.019114 0.00607333 0.00296696 0.00178841 -0.00434689 0.0108699 0.010932 0.00569574 0.000665428 -0.00243272 0.0068548 0.00720752 0.00482705 0.00124737 -0.000322319 0.00408274 0.00398599 0.00287511 0.00131737 0.000318523 0.00135472 0.00128188 0.000960321 0.000526473 0.000185107 -0.00135472 -0.00128188 -0.000960321 -0.000526473 -0.000185107 -0.00408274 -0.00398599 -0.00287511 -0.00131737 -0.000318523 -0.0068548 -0.00720752 -0.00482705 -0.00124737 0.000322319 -0.0108699 -0.010932 -0.00569574 -0.000665428 0.00243272 -0.019114 -0.00607333 -0.00296696 -0.00178841 0.00434689 
</DataArray>
<DataArray Name="Strain_13" format="ascii" type="Float64">
0 0 0 0 0 0 0 0 0 0 0 0 0 0 0 0 0 0 0 0 0 0 0 0 0 0 0 0 0 0 0 0 0 0 0 0 0 0 0 0 0 0 0 0 0 0 0 0 0 0 0 0 0 0 0 0 0 0 0 0 0 0 0 0 0 0 0 0 0 0 0 0 0 0 0 0 0 0 0 0 0 0 0 0 0 0 0 0 0 0 0 0 0 0 0 0 0 0 0 0 
</DataArray>
<DataArray Name="Strain_23" format="ascii" type="Float64">
0 0 0 0 0 0 0 0 0 0 0 0 0 0 0 0 0 0 0 0 0 0 0 0 0 0 0 0 0 0 0 0 0 0 0 0 0 0 0 0 0 0 0 0 0 0 0 0 0 0 0 0 0 0 0 0 0 0 0 0 0 0 0 0 0 0 0 0 0 0 0 0 0 0 0 0 0 0 0 0 0 0 0 0 0 0 0 0 0 0 0 0 0 0 0 0 0 0 0 0 
</DataArray>
<DataArray Name="Strain_33" format="ascii" type="Float64">
1 1 1 1 1 1 1 1 1 1 1 1 1 1 1 1 1 1 1 1 1 1 1 1 1 1 1 1 1 1 1 1 1 1 1 1 1 1 1 1 1 1 1 1 1 1 1 1 1 1 1 1 1 1 1 1 1 1 1 1 1 1 1 1 1 1 1 1 1 1 1 1 1 1 1 1 1 1 1 1 1 1 1 1 1 1 1 1 1 1 1 1 1 1 1 1 1 1 1 1 
</DataArray>
<DataArray Name="Stress_11" format="ascii" type="Float64">
103.725 38.2469 -27.3941 -93.035 -158.513 103.592 38.0465 -27.3949 -92.8365 -158.382 103.634 38.0943 -27.3953 -92.8848 -158.425 103.647 38.1215 -27.3954 -92.9122 -158.437 103.65 38.127 -27.3953 -92.9176 -158.44 103.65 38.127 -27.3953 -92.9176 -158.44 103.647 38.1215 -27.3954 -92.9122 -158.437 103.634 38.0943 -27.3953 -92.8848 -158.425 103.592 38.0465 -27.3949 -92.8365 -158.382 103.725 38.2469 -27.3941 -93.035 -158.513 -0.223072 -0.28921 -0.355027 -0.420687 -0.486138 -0.224072 -0.289341 -0.354891 -0.420405 -0.485986 -0.224172 -0.289562 -0.354958 -0.420461 -0.486026 -0.224232 -0.289635 -0.355056 -0.420528 -0.486047 -0.224261 -0.289672 -0.355099 -0.420561 -0.486056 -0.224261 -0.289672 -0.355099 -0.420561 -0.486056 -0.224232 -0.289635 -0.355056 -0.420528 -0.486047 -0.224172 -0.289562 -0.354958 -0.420461 -0.486026 -0.224072 -0.289341 -0.354891 -0.420405 -0.485986 -0.223072 -0.28921 -0.355027 -0.420687 -0.486138 
</DataArray>
<DataArray Name="Stress_22" format="ascii" type="Float64">
103.035 38.1479 -27.395 -92.9377 -157.827 103.096 37.9703 -27.3949 -92.7605 -157.888 103.129 37.8869 -27.3951 -92.6774 -157.921 103.136 37.8706 -27.3953 -92.6614 -157.927 103.137 37.8695 -27.3954 -92.6604 -157.928 103.137 37.8695 -27.3954 -92.6604 -157.928 103.136 37.8706 -27.3953 -92.6614 -157.927 103.129 37.8869 -27.3951 -92.6774 -157.921 103.096 37.9703 -27.3949 -92.7605 -157.888 103.035 38.1479 -27.395 -92.9377 -157.827 -0.223129 -0.289422 -0.35496 -0.420546 -0.48545 -0.223303 -0.289088 -0.354847 -0.420322 -0.485539 -0.223389 -0.289017 -0.354654 -0.420164 -0.485572 -0.223416 -0.288984 -0.354556 -0.420077 -0.485552 -0.22342 -0.288967 -0.354518 -0.420042 -0.485529 -0.22342 -0.288967 -0.354518 -0.420042 -0.485529 -0.223416 -0.288984 -0.354556 -0.420077 -0.485552 -0.223389 -0.289017 -0.354654 -0.420164 -0.485572 -0.223303 -0.289088 -0.354847 -0.420322 -0.485539 -0.223129 -0.289422 -0.35496 -0.420546 -0.48545 
</DataArray>
<DataArray Name="Stress_12" format="ascii" type="Float64">
-0.160011 0.103283 0.112258 0.103076 -0.159674 -0.0805268 0.0233315 0.112268 0.0236464 -0.079791 -0.0166439 0.00128903 0.0289406 0.001719 -0.0161302 -0.00148749 -0.000558502 0.00303393 -0.000302607 -0.00120949 0.00016298 -0.000247949 -0.000175021 -0.000168745 0.000249212 -0.00016298 0.000247949 0.000175021 0.000168745 -0.000249212 0.00148749 0.000558502 -0.00303393 0.000302607 0.00120949 0.0166439 -0.00128903 -0.0289406 -0.001719 0.0161302 0.0805268 -0.0233315 -0.112268 -0.0236464 0.079791 0.160011 -0.103283 -0.112258 -0.103076 0.159674 0.000796423 0.000253058 0.000123624 7.45177e-05 -0.000181122 0.000452916 0.000455503 0.000237324 2.77264e-05 -0.000101364 0.000285619 0.000300316 0.000201129 5.19741e-05 -1.34301e-05 0.000170115 0.000166084 0.000119797 5.48909e-05 1.32719e-05 5.64473e-05 5.34123e-05 4.00137e-05 2.19365e-05 7.71286e-06 -5.64473e-05 -5.34123e-05 -4.00137e-05 -2.19365e-05 -7.71286e-06 -0.000170115 -0.000166084 -0.000119797 -5.48909e-05 -1.32719e-05 -0.000285619 -0.000300316 -0.000201129 -5.19741e-05 1.34301e-05 -0.000452916 -0.000455503 -0.000237324 -2.77264e-05 0.000101364 -0.000796423 -0.000253058 -0.000123624 -7.45177e-05 0.000181122 
</DataArray>
<DataArray Name="Stress_13" format="ascii" type="Float64">
0 0 0 0 0 0 0 0 0 0 0 0 0 0 0 0 0 0 0 0 0 0 0 0 0 0 0 0 0 0 0 0 0 0 0 0 0 0 0 0 0 0 0 0 0 0 0 0 0 0 0 0 0 0 0 0 0 0 0 0 0 0 0 0 0 0 0 0 0 0 0 0 0 0 0 0 0 0 0 0 0 0 0 0 0 0 0 0 0 0 0 0 0 0 0 0 0 0 0 0 
</DataArray>
<DataArray Name="Stress_23" format="ascii" type="Float64">
0 0 0 0 0 0 0 0 0 0 0 0 0 0 0 0 0 0 0 0 0 0 0 0 0 0 0 0 0 0 0 0 0 0 0 0 0 0 0 0 0 0 0 0 0 0 0 0 0 0 0 0 0 0 0 0 0 0 0 0 0 0 0 0 0 0 0 0 0 0 0 0 0 0 0 0 0 0 0 0 0 0 0 0 0 0 0 0 0 0 0 0 0 0 0 0 0 0 0 0 
</DataArray>
<DataArray Name="Stress_33" format="ascii" type="Float64">
141.352 115.279 89.0422 62.8055 36.732 141.338 115.203 89.042 62.8806 36.7459 141.353 115.196 89.0419 62.8875 36.731 141.357 115.198 89.0419 62.8853 36.7272 141.357 115.199 89.0419 62.8844 36.7265 141.357 115.199 89.0419 62.8844 36.7265 141.357 115.198 89.0419 62.8853 36.7272 141.353 115.196 89.0419 62.8875 36.731 141.338 115.203 89.042 62.8806 36.7459 141.352 115.279 89.0422 62.8055 36.732 0.01076 -0.0157264 -0.0419974 -0.0682465 -0.0943176 0.0105249 -0.015686 -0.0419476 -0.0681455 -0.094305 0.0104878 -0.0157158 -0.0419223 -0.068125 -0.0943195 0.0104703 -0.0157237 -0.0419224 -0.0681211 -0.0943198 0.0104639 -0.0157279 -0.0419234 -0.0681206 -0.094317 0.0104639 -0.0157279 -0.0419234 -0.0681206 -0.094317 0.0104703 -0.0157237 -0.0419224 -0.0681211 -0.0943198 0.0104878 -0.0157158 -0.0419223 -0.068125 -0.0943195 0.0105249 -0.015686 -0.0419476 -0.0681455 -0.094305 0.01076 -0.0157264 -0.0419974 -0.0682465 -0.0943176 
</DataArray>
</CellData>
<Points>
<DataArray NumberOfComponents="3" format="ascii" type="Float64">
-0.05 -0.05 0 -0.05 0 0 -0.05 -0.04 0 -0.05 -0.03 0 -0.05 -0.02 0 -0.05 -0.01 0 0 0 0 -0.04 0 0 -0.03 0 0 -0.02 0 0 -0.01 0 0 0 -0.05 0 0 -0.01 0 0 -0.02 0 0 -0.03 0 0 -0.04 0 -0.01 -0.05 0 -0.02 -0.05 0 -0.03 -0.05 0 -0.04 -0.05 0 -0.04 -0.04 0 -0.04 -0.03 0 -0.04 -0.02 0 -0.04 -0.01 0 -0.03 -0.04 0 -0.03 -0.03 0 -0.03 -0.02 0 -0.03 -0.01 0 -0.02 -0.04 0 -0.02 -0.03 0 -0.02 -0.02 0 -0.02 -0.01 0 -0.01 -0.04 0 -0.01 -0.03 0 -0.01 -0.02 0 -0.01 -0.01 0 -0.05 0.05 0 -0.05 0.01 0 -0.05 0.02 0 -0.05 0.03 0 -0.05 0.04 0 0 0.05 0 -0.04 0.05 0 -0.03 0.05 0 -0.02 0.05 0 -0.01 0.05 0 0 0.04 0 0 0.03 0 0 0.02 0 0 0.01 0 -0.04 0.01 0 -0.04 0.02 0 -0.04 0.03 0 -0.04 0.04 0 -0.03 0.01 0 -0.03 0.02 0 -0.03 0.03 0 -0.03 0.04 0 -0.02 0.01 0 -0.02 0.02 0 -0.02 0.03 0 -0.02 0.04 0 -0.01 0.01 0 -0.01 0.02 0 -0.01 0.03 0 -0.01 0.04 0 0.05 0 0 0.01 0 0 0.02 0 0 0.03 0 0 0.04 0 0 0.05 -0.05 0 0.05 -0.01 0 0.05 -0.02 0 0.05 -0.03 0 0.05 -0.04 0 0.04 -0.05 0 0.03 -0.05 0 0.02 -0.05 0 0.01 -0.05 0 0.01 -0.04 0 0.01 -0.03 0 0.01 -0.02 0 0.01 -0.01 0 0.02 -0.04 0 0.02 -0.03 0 0.02 -0.02 0 0.02 -0.01 0 0.03 -0.04 0 0.03 -0.03 0 0.03 -0.02 0 0.03 -0.01 0 0.04 -0.04 0 0.04 -0.03 0 0.04 -0.02 0 0.04 -0.01 0 0.05 0.05 0 0.01 0.05 0 0.02 0.05 0 0.03 0.05 0 0.04 0.05 0 0.05 0.04 0 0.05 0.03 0 0.05 0.02 0 0.05 0.01 0 0.01 0.01 0 0.01 0.02 0 0.01 0.03 0 0.01 0.04 0 0.02 0.01 0 0.02 0.02 0 0.02 0.03 0 0.02 0.04 0 0.03 0.01 0 0.03 0.02 0 0.03 0.03 0 0.03 0.04 0 0.04 0.01 0 0.04 0.02 0 0.04 0.03 0 0.04 0.04 0 
</DataArray>
</Points>
<Cells>
<DataArray Name="connectivity" format="ascii" type="Int64">
0 19 20 2 19 18 24 20 18 17 28 24 17 16 32 28 16 11 15 32 2 20 21 3 20 24 25 21 24 28 29 25 28 32 33 29 32 15 14 33 3 21 22 4 21 25 26 22 25 29 30 26 29 33 34 30 33 14 13 34 4 22 23 5 22 26 27 23 26 30 31 27 30 34 35 31 34 13 12 35 5 23 7 1 23 27 8 7 27 31 9 8 31 35 10 9 35 12 6 10 1 7 50 37 7 8 54 50 8 9 58 54 9 10 62 58 10 6 49 62 37 50 51 38 50 54 55 51 54 58 59 55 58 62 63 59 62 49 48 63 38 51 52 39 51 55 56 52 55 59 60 56 59 63 64 60 63 48 47 64 39 52 53 40 52 56 57 53 56 60 61 57 60 64 65 61 64 47 46 65 40 53 42 36 53 57 43 42 57 61 44 43 61 65 45 44 65 46 41 45 11 79 80 15 79 78 84 80 78 77 88 84 77 76 92 88 76 71 75 92 15 80 81 14 80 84 85 81 84 88 89 85 88 92 93 89 92 75 74 93 14 81 82 13 81 85 86 82 85 89 90 86 89 93 94 90 93 74 73 94 13 82 83 12 82 86 87 83 86 90 91 87 90 94 95 91 94 73 72 95 12 83 67 6 83 87 68 67 87 91 69 68 91 95 70 69 95 72 66 70 6 67 105 49 67 68 109 105 68 69 113 109 69 70 117 113 70 66 104 117 49 105 106 48 105 109 110 106 109 113 114 110 113 117 118 114 117 104 103 118 48 106 107 47 106 110 111 107 110 114 115 111 114 118 119 115 118 103 102 119 47 107 108 46 107 111 112 108 111 115 116 112 115 119 120 116 119 102 101 120 46 108 97 41 108 112 98 97 112 116 99 98 116 120 100 99 120 101 96 100 
</DataArray>
<DataArray Name="offsets" format="ascii" type="Int64">
4 8 12 16 20 24 28 32 36 40 44 48 52 56 60 64 68 72 76 80 84 88 92 96 100 104 108 112 116 120 124 128 132 136 140 144 148 152 156 160 164 168 172 176 180 184 188 192 196 200 204 208 212 216 220 224 228 232 236 240 244 248 252 256 260 264 268 272 276 280 284 288 292 296 300 304 308 312 316 320 324 328 332 336 340 344 348 352 356 360 364 368 372 376 380 384 388 392 396 400 
</DataArray>
<DataArray Name="types" format="ascii" type="Int8">
9 9 9 9 9 9 9 9 9 9 9 9 9 9 9 9 9 9 9 9 9 9 9 9 9 9 9 9 9 9 9 9 9 9 9 9 9 9 9 9 9 9 9 9 9 9 9 9 9 9 9 9 9 9 9 9 9 9 9 9 9 9 9 9 9 9 9 9 9 9 9 9 9 9 9 9 9 9 9 9 9 9 9 9 9 9 9 9 9 9 9 9 9 9 9 9 9 9 9 9 
</DataArray>
</Cells>
</Piece>
</UnstructuredGrid>
</VTKFile>
