<?xml version="1.0"?>
<VTKFile byte_order="LittleEndian" type="UnstructuredGrid" version="0.1">
<UnstructuredGrid>
<Piece NumberOfCells="100" NumberOfPoints="121">
<PointData>
<DataArray Name="Warping_X" format="ascii" type="Float64">
-1.19468 1.31637e-14 -0.957258 -0.718183 -0.478863 -0.23944 1.32122e-14 1.31284e-14 1.30993e-14 1.31236e-14 1.31592e-14 -0.00122025 0.00025765 0.000497228 0.000636104 0.000529972 -0.239596 -0.478453 -0.717455 -0.956311 -0.765545 -0.574452 -0.383021 -0.191518 -0.574066 -0.430657 -0.287137 -0.143571 -0.382661 -0.28689 -0.191228 -0.0956118 -0.191182 -0.143095 -0.0953439 -0.0476645 1.19468 0.23944 0.478863 0.718183 0.957258 0.00122025 0.956311 0.717455 0.478453 0.239596 -0.000529972 -0.000636104 -0.000497228 -0.00025765 0.191518 0.383021 0.574452 0.765545 0.143571 0.287137 0.430657 0.574066 0.0956118 0.191228 0.28689 0.382661 0.0476645 0.0953439 0.143095 0.191182 -2.1978e-14 1.92425e-15 -7.20896e-15 -1.42207e-14 -1.91473e-14 1.19505 0.23958 0.479095 0.718457 0.957562 0.95667 0.717769 0.478576 0.239084 0.191498 0.143952 0.0960791 0.0480707 0.382899 0.287384 0.191731 0.0959065 0.574341 0.431 0.287476 0.143779 0.765844 0.574744 0.383284 0.191678 -1.19505 -0.239084 -0.478576 -0.717769 -0.95667 -0.957562 -0.718457 -0.479095 -0.23958 -0.0480707 -0.0960791 -0.143952 -0.191498 -0.0959065 -0.191731 -0.287384 -0.382899 -0.143779 -0.287476 -0.431 -0.574341 -0.191678 -0.383284 -0.574744 -0.765844 
</DataArray>
<DataArray Name="Warping_Y" format="ascii" type="Float64">
-0.0013988 0.598725 0.214659 0.382765 0.502772 0.574741 0.000769523 0.383281 0.21579 0.0961989 0.0245077 -0.599349 -0.023214 -0.0951822 -0.215188 -0.383293 -0.574509 -0.502656 -0.383065 -0.215737 -3.2465e-05 0.16762 0.287427 0.359317 -0.167338 0.000324103 0.120024 0.191847 -0.286928 -0.119267 0.000433551 0.0722561 -0.358805 -0.191152 -0.0713455 0.000544221 -0.0013988 0.574741 0.502772 0.382765 0.214659 -0.599349 -0.215737 -0.383065 -0.502656 -0.574509 -0.383293 -0.215188 -0.0951822 -0.023214 0.359317 0.287427 0.16762 -3.2465e-05 0.191847 0.120024 0.000324103 -0.167338 0.0722561 0.000433551 -0.119267 -0.286928 0.000544221 -0.0713455 -0.191152 -0.358805 0.598694 0.0245165 0.0961423 0.215676 0.383165 -0.00163194 0.57468 0.50264 0.382566 0.214429 -0.216049 -0.383503 -0.503276 -0.575272 -0.359504 -0.191442 -0.0714428 0.000530695 -0.287531 -0.119692 0.000221709 0.0721626 -0.167771 -3.35858e-05 0.119785 0.191701 -0.000335933 0.167356 0.287229 0.359178 -0.00163194 -0.575272 -0.503276 -0.383503 -0.216049 0.214429 0.382566 0.50264 0.57468 0.000530695 -0.0714428 -0.191442 -0.359504 0.0721626 0.000221709 -0.119692 -0.287531 0.191701 0.119785 -3.35858e-05 -0.167771 0.359178 0.287229 0.167356 -0.000335933 
</DataArray>
<DataArray Name="Warping_Z" format="ascii" type="Float64">
0 0 0 0 0 0 0 0 0 0 0 0 0 0 0 0 0 0 0 0 0 0 0 0 0 0 0 0 0 0 0 0 0 0 0 0 0 0 0 0 0 0 0 0 0 0 0 0 0 0 0 0 0 0 0 0 0 0 0 0 0 0 0 0 0 0 0 0 0 0 0 0 0 0 0 0 0 0 0 0 0 0 0 0 0 0 0 0 0 0 0 0 0 0 0 0 0 0 0 0 0 0 0 0 0 0 0 0 0 0 0 0 0 0 0 0 0 0 0 0 0 
</DataArray>
</PointData>
<CellData>
<DataArray Name="MaterialId" format="ascii" type="Float64">
1 1 1 1 1 1 1 1 1 1 1 1 1 1 1 1 1 1 1 1 1 1 1 1 1 1 1 1 1 1 1 1 1 1 1 1 1 1 1 1 1 1 1 1 1 1 1 1 1 1 2 2 2 2 2 2 2 2 2 2 2 2 2 2 2 2 2 2 2 2 2 2 2 2 2 2 2 2 2 2 2 2 2 2 2 2 2 2 2 2 2 2 2 2 2 2 2 2 2 2 
</DataArray>
<DataArray Name="FiberAngle" format="ascii" type="Float64">
0 0 0 0 0 0 0 0 0 0 0 0 0 0 0 0 0 0 0 0 0 0 0 0 0 0 0 0 0 0 0 0 0 0 0 0 0 0 0 0 0 0 0 0 0 0 0 0 0 0 0 0 0 0 0 0 0 0 0 0 0 0 0 0 0 0 0 0 0 0 0 0 0 0 0 0 0 0 0 0 0 0 0 0 0 0 0 0 0 0 0 0 0 0 0 0 0 0 0 0 
</DataArray>
<DataArray Name="Strain_11" format="ascii" type="Float64">
21.5043 21.5167 21.5204 21.5168 21.5044 16.7722 16.7637 16.7586 16.7637 16.7722 11.9786 11.984 11.9838 11.9839 11.9786 7.18817 7.19158 7.19341 7.19157 7.18816 2.39611 2.39737 2.39795 2.39737 2.39611 -2.39611 -2.39737 -2.39795 -2.39737 -2.39611 -7.18817 -7.19158 -7.19341 -7.19157 -7.18816 -11.9786 -11.984 -11.9838 -11.9839 -11.9786 -16.7722 -16.7637 -16.7586 -16.7637 -16.7722 -21.5043 -21.5167 -21.5204 -21.5168 -21.5044 21.5636 21.5447 21.5317 21.5202 21.5048 16.7142 16.7417 16.7529 16.7624 16.7715 11.9449 11.9542 11.9681 11.9776 11.9762 7.16975 7.17437 7.18089 7.18537 7.18563 2.39065 2.39179 2.39364 2.39495 2.39506 -2.39065 -2.39179 -2.39364 -2.39495 -2.39506 -7.16975 -7.17437 -7.18089 -7.18537 -7.18563 -11.9449 -11.9542 -11.9681 -11.9776 -11.9762 -16.7142 -16.7417 -16.7529 -16.7624 -16.7715 -21.5636 -21.5447 -21.5317 -21.5202 -21.5048 
</DataArray>
<DataArray Name="Strain_22" format="ascii" type="Float64">
21.5881 21.5716 21.5728 21.5716 21.588 16.788 16.7657 16.7662 16.7657 16.7879 11.9907 11.9754 11.97 11.9753 11.9906 7.19295 7.18563 7.18225 7.18561 7.1929 2.39737 2.39532 2.39428 2.39531 2.39735 -2.39737 -2.39532 -2.39428 -2.39531 -2.39735 -7.19295 -7.18563 -7.18225 -7.18561 -7.1929 -11.9907 -11.9754 -11.97 -11.9753 -11.9906 -16.788 -16.7657 -16.7662 -16.7657 -16.7879 -21.5881 -21.5716 -21.5728 -21.5716 -21.588 21.5912 21.5757 21.5738 21.5722 21.5887 16.8083 16.7951 16.7788 16.7715 16.7914 12.0002 11.9956 11.9866 11.9846 11.9974 7.19709 7.19572 7.19286 7.19326 7.19947 2.39847 2.39827 2.39775 2.39811 2.40005 -2.39847 -2.39827 -2.39775 -2.39811 -2.40005 -7.19709 -7.19572 -7.19286 -7.19326 -7.19947 -12.0002 -11.9956 -11.9866 -11.9846 -11.9974 -16.8083 -16.7951 -16.7788 -16.7715 -16.7914 -21.5912 -21.5757 -21.5738 -21.5722 -21.5887 
</DataArray>
<DataArray Name="Strain_12" format="ascii" type="Float64">
-0.0418923 -0.0239277 -4.48805e-05 0.0238169 0.0418145 0.0165832 -0.00493592 -4.7425e-05 0.0048728 -0.0165463 0.0130518 0.0126108 2.95253e-06 -0.012584 -0.0130343 0.00776687 0.00983486 3.82275e-05 -0.00976917 -0.00775538 0.00449035 0.00641794 5.11255e-05 -0.00633648 -0.00447853 0.00449035 0.00641794 5.11255e-05 -0.00633648 -0.00447853 0.00776687 0.00983486 3.82275e-05 -0.00976917 -0.00775538 0.0130518 0.0126108 2.95253e-06 -0.012584 -0.0130343 0.0165832 -0.00493592 -4.7425e-05 0.0048728 -0.0165463 -0.0418923 -0.0239277 -4.48805e-05 0.0238169 0.0418145 0.10151 0.0353163 0.0213686 0.0318396 0.043483 0.0047874 0.0330428 0.0280652 0.0192103 -0.0115166 -0.0262716 -0.00557292 0.00219851 -0.00749915 -0.0101419 -0.0381903 -0.0268076 -0.0209576 -0.0189903 -0.0104627 -0.0418357 -0.0359786 -0.0306746 -0.0245604 -0.0113619 -0.0418357 -0.0359786 -0.0306746 -0.0245604 -0.0113619 -0.0381903 -0.0268076 -0.0209576 -0.0189903 -0.0104627 -0.0262716 -0.00557292 0.00219851 -0.00749915 -0.0101419 0.0047874 0.0330428 0.0280652 0.0192103 -0.0115166 0.10151 0.0353163 0.0213686 0.0318396 0.043483 
</DataArray>
<DataArray Name="Strain_13" format="ascii" type="Float64">
0 0 0 0 0 0 0 0 0 0 0 0 0 0 0 0 0 0 0 0 0 0 0 0 0 0 0 0 0 0 0 0 0 0 0 0 0 0 0 0 0 0 0 0 0 0 0 0 0 0 0 0 0 0 0 0 0 0 0 0 0 0 0 0 0 0 0 0 0 0 0 0 0 0 0 0 0 0 0 0 0 0 0 0 0 0 0 0 0 0 0 0 0 0 0 0 0 0 0 0 
</DataArray>
<DataArray Name="Strain_23" format="ascii" type="Float64">
0 0 0 0 0 0 0 0 0 0 0 0 0 0 0 0 0 0 0 0 0 0 0 0 0 0 0 0 0 0 0 0 0 0 0 0 0 0 0 0 0 0 0 0 0 0 0 0 0 0 0 0 0 0 0 0 0 0 0 0 0 0 0 0 0 0 0 0 0 0 0 0 0 0 0 0 0 0 0 0 0 0 0 0 0 0 0 0 0 0 0 0 0 0 0 0 0 0 0 0 
</DataArray>
<DataArray Name="Strain_33" format="ascii" type="Float64">
-0.045 -0.045 -0.045 -0.045 -0.045 -0.035 -0.035 -0.035 -0.035 -0.035 -0.025 -0.025 -0.025 -0.025 -0.025 -0.015 -0.015 -0.015 -0.015 -0.015 -0.005 -0.005 -0.005 -0.005 -0.005 0.005 0.005 0.005 0.005 0.005 0.015 0.015 0.015 0.015 0.015 0.025 0.025 0.025 0.025 0.025 0.035 0.035 0.035 0.035 0.035 0.045 0.045 0.045 0.045 0.045 -0.045 -0.045 -0.045 -0.045 -0.045 -0.035 -0.035 -0.035 -0.035 -0.035 -0.025 -0.025 -0.025 -0.025 -0.025 -0.015 -0.015 -0.015 -0.015 -0.015 -0.005 -0.005 -0.005 -0.005 -0.005 0.005 0.005 0.005 0.005 0.005 0.015 0.015 0.015 0.015 0.015 0.025 0.025 0.025 0.025 0.025 0.035 0.035 0.035 0.035 0.035 0.045 0.045 0.045 0.045 0.045 
</DataArray>
<DataArray Name="Stress_11" format="ascii" type="Float64">
2987.79 2988.71 2989.15 2988.71 2987.8 2328.94 2327.38 2326.82 2327.37 2328.93 1663.34 1663.51 1663.34 1663.5 1663.33 998.073 998.249 998.359 998.247 998.071 332.689 332.772 332.808 332.772 332.688 -332.689 -332.772 -332.808 -332.772 -332.688 -998.073 -998.249 -998.359 -998.247 -998.071 -1663.34 -1663.51 -1663.34 -1663.5 -1663.33 -2328.94 -2327.38 -2326.82 -2327.37 -2328.93 -2987.79 -2988.71 -2989.15 -2988.71 -2987.8 2.99446 2.99193 2.99044 2.98911 2.98786 2.32306 2.32574 2.32654 2.32739 2.32896 1.65985 1.66076 1.66205 1.66306 1.66326 0.996141 0.996616 0.997262 0.99777 0.997972 0.332113 0.332234 0.332425 0.332581 0.332647 -0.332113 -0.332234 -0.332425 -0.332581 -0.332647 -0.996141 -0.996616 -0.997262 -0.99777 -0.997972 -1.65985 -1.66076 -1.66205 -1.66306 -1.66326 -2.32306 -2.32574 -2.32654 -2.32739 -2.32896 -2.99446 -2.99193 -2.99044 -2.98911 -2.98786 
</DataArray>
<DataArray Name="Stress_22" format="ascii" type="Float64">
2994.77 2993.28 2993.51 2993.28 2994.76 2330.25 2327.54 2327.45 2327.54 2330.24 1664.35 1662.79 1662.19 1662.79 1664.34 998.471 997.753 997.429 997.751 998.465 332.794 332.601 332.502 332.601 332.792 -332.794 -332.601 -332.502 -332.601 -332.792 -998.471 -997.753 -997.429 -997.751 -998.465 -1664.35 -1662.79 -1662.19 -1662.79 -1664.34 -2330.25 -2327.54 -2327.45 -2327.54 -2330.24 -2994.77 -2993.28 -2993.51 -2993.28 -2994.76 2.99676 2.99451 2.99395 2.99345 2.99485 2.3309 2.33019 2.3287 2.32815 2.33062 1.66447 1.66421 1.6636 1.66364 1.66502 0.998419 0.998396 0.998259 0.998428 0.999125 0.332765 0.332774 0.332768 0.332844 0.333062 -0.332765 -0.332774 -0.332768 -0.332844 -0.333062 -0.998419 -0.998396 -0.998259 -0.998428 -0.999125 -1.66447 -1.66421 -1.6636 -1.66364 -1.66502 -2.3309 -2.33019 -2.3287 -2.32815 -2.33062 -2.99676 -2.99451 -2.99395 -2.99345 -2.99485 
</DataArray>
<DataArray Name="Stress_12" format="ascii" type="Float64">
-1.74553 -0.996994 -0.00187004 0.992377 1.74228 0.690974 -0.205665 -0.00197606 0.203035 -0.689434 0.543831 0.525454 0.000123023 -0.524338 -0.5431 0.323622 0.409789 0.00159283 -0.407052 -0.323143 0.1871 0.267416 0.00213025 -0.264022 -0.186607 0.1871 0.267416 0.00213025 -0.264022 -0.186607 0.323622 0.409789 0.00159283 -0.407052 -0.323143 0.543831 0.525454 0.000123023 -0.524338 -0.5431 0.690974 -0.205665 -0.00197606 0.203035 -0.689434 -1.74553 -0.996994 -0.00187004 0.992377 1.74228 0.00422963 0.00147152 0.000890365 0.00132666 0.00181181 0.000199477 0.0013768 0.00116939 0.000800437 -0.000479861 -0.00109466 -0.000232207 9.16054e-05 -0.000312467 -0.000422582 -0.00159127 -0.00111699 -0.000873242 -0.000791271 -0.000435948 -0.00174317 -0.00149912 -0.00127812 -0.00102336 -0.000473415 -0.00174317 -0.00149912 -0.00127812 -0.00102336 -0.000473415 -0.00159127 -0.00111699 -0.000873242 -0.000791271 -0.000435948 -0.00109466 -0.000232207 9.16054e-05 -0.000312467 -0.000422582 0.000199477 0.0013768 0.00116939 0.000800437 -0.000479861 0.00422963 0.00147152 0.000890365 0.00132666 0.00181181 
</DataArray>
<DataArray Name="Stress_13" format="ascii" type="Float64">
0 0 0 0 0 0 0 0 0 0 0 0 0 0 0 0 0 0 0 0 0 0 0 0 0 0 0 0 0 0 0 0 0 0 0 0 0 0 0 0 0 0 0 0 0 0 0 0 0 0 0 0 0 0 0 0 0 0 0 0 0 0 0 0 0 0 0 0 0 0 0 0 0 0 0 0 0 0 0 0 0 0 0 0 0 0 0 0 0 0 0 0 0 0 0 0 0 0 0 0 
</DataArray>
<DataArray Name="Stress_23" format="ascii" type="Float64">
0 0 0 0 0 0 0 0 0 0 0 0 0 0 0 0 0 0 0 0 0 0 0 0 0 0 0 0 0 0 0 0 0 0 0 0 0 0 0 0 0 0 0 0 0 0 0 0 0 0 0 0 0 0 0 0 0 0 0 0 0 0 0 0 0 0 0 0 0 0 0 0 0 0 0 0 0 0 0 0 0 0 0 0 0 0 0 0 0 0 0 0 0 0 0 0 0 0 0 0 
</DataArray>
<DataArray Name="Stress_33" format="ascii" type="Float64">
1192.01 1191.9 1192.03 1191.9 1192.01 928.338 927.484 927.356 927.483 928.334 663.037 662.759 662.607 662.758 663.034 397.809 397.7 397.657 397.7 397.807 132.596 132.575 132.562 132.574 132.596 -132.596 -132.575 -132.562 -132.574 -132.596 -397.809 -397.7 -397.657 -397.7 -397.807 -663.037 -662.759 -662.607 -662.758 -663.034 -928.338 -927.484 -927.356 -927.483 -928.334 -1192.01 -1191.9 -1192.03 -1191.9 -1192.01 1.19375 1.19279 1.19238 1.19201 1.19204 0.927292 0.927686 0.927549 0.927608 0.928416 0.662364 0.662495 0.662629 0.662839 0.663155 0.397412 0.397502 0.397604 0.39774 0.397919 0.132476 0.132502 0.132539 0.132585 0.132642 -0.132476 -0.132502 -0.132539 -0.132585 -0.132642 -0.397412 -0.397502 -0.397604 -0.39774 -0.397919 -0.662364 -0.662495 -0.662629 -0.662839 -0.663155 -0.927292 -0.927686 -0.927549 -0.927608 -0.928416 -1.19375 -1.19279 -1.19238 -1.19201 -1.19204 
</DataArray>
</CellData>
<Points>
<DataArray NumberOfComponents="3" format="ascii" type="Float64">
-0.05 -0.05 0 -0.05 0 0 -0.05 -0.04 0 -0.05 -0.03 0 -0.05 -0.02 0 -0.05 -0.01 0 0 0 0 -0.04 0 0 -0.03 0 0 -0.02 0 0 -0.01 0 0 0 -0.05 0 0 -0.01 0 0 -0.02 0 0 -0.03 0 0 -0.04 0 -0.01 -0.05 0 -0.02 -0.05 0 -0.03 -0.05 0 -0.04 -0.05 0 -0.04 -0.04 0 -0.04 -0.03 0 -0.04 -0.02 0 -0.04 -0.01 0 -0.03 -0.04 0 -0.03 -0.03 0 -0.03 -0.02 0 -0.03 -0.01 0 -0.02 -0.04 0 -0.02 -0.03 0 -0.02 -0.02 0 -0.02 -0.01 0 -0.01 -0.04 0 -0.01 -0.03 0 -0.01 -0.02 0 -0.01 -0.01 0 -0.05 0.05 0 -0.05 0.01 0 -0.05 0.02 0 -0.05 0.03 0 -0.05 0.04 0 0 0.05 0 -0.04 0.05 0 -0.03 0.05 0 -0.02 0.05 0 -0.01 0.05 0 0 0.04 0 0 0.03 0 0 0.02 0 0 0.01 0 -0.04 0.01 0 -0.04 0.02 0 -0.04 0.03 0 -0.04 0.04 0 -0.03 0.01 0 -0.03 0.02 0 -0.03 0.03 0 -0.03 0.04 0 -0.02 0.01 0 -0.02 0.02 0 -0.02 0.03 0 -0.02 0.04 0 -0.01 0.01 0 -0.01 0.02 0 -0.01 0.03 0 -0.01 0.04 0 0.05 0 0 0.01 0 0 0.02 0 0 0.03 0 0 0.04 0 0 0.05 -0.05 0 0.05 -0.01 0 0.05 -0.02 0 0.05 -0.03 0 0.05 -0.04 0 0.04 -0.05 0 0.03 -0.05 0 0.02 -0.05 0 0.01 -0.05 0 0.01 -0.04 0 0.01 -0.03 0 0.01 -0.02 0 0.01 -0.01 0 0.02 -0.04 0 0.02 -0.03 0 0.02 -0.02 0 0.02 -0.01 0 0.03 -0.04 0 0.03 -0.03 0 0.03 -0.02 0 0.03 -0.01 0 0.04 -0.04 0 0.04 -0.03 0 0.04 -0.02 0 0.04 -0.01 0 0.05 0.05 0 0.01 0.05 0 0.02 0.05 0 0.03 0.05 0 0.04 0.05 0 0.05 0.04 0 0.05 0.03 0 0.05 0.02 0 0.05 0.01 0 0.01 0.01 0 0.01 0.02 0 0.01 0.03 0 0.01 0.04 0 0.02 0.01 0 0.02 0.02 0 0.02 0.03 0 0.02 0.04 0 0.03 0.01 0 0.03 0.02 0 0.03 0.03 0 0.03 0.04 0 0.04 0.01 0 0.04 0.02 0 0.04 0.03 0 0.04 0.04 0 
</DataArray>
</Points>
<Cells>
<DataArray Name="connectivity" format="ascii" type="Int64">
0 19 20 2 19 18 24 20 18 17 28 24 17 16 32 28 16 11 15 32 2 20 21 3 20 24 25 21 24 28 29 25 28 32 33 29 32 15 14 33 3 21 22 4 21 25 26 22 25 29 30 26 29 33 34 30 33 14 13 34 4 22 23 5 22 26 27 23 26 30 31 27 30 34 35 31 34 13 12 35 5 23 7 1 23 27 8 7 27 31 9 8 31 35 10 9 35 12 6 10 1 7 50 37 7 8 54 50 8 9 58 54 9 10 62 58 10 6 49 62 37 50 51 38 50 54 55 51 54 58 59 55 58 62 63 59 62 49 48 63 38 51 52 39 51 55 56 52 55 59 60 56 59 63 64 60 63 48 47 64 39 52 53 40 52 56 57 53 56 60 61 57 60 64 65 61 64 47 46 65 40 53 42 36 53 57 43 42 57 61 44 43 61 65 45 44 65 46 41 45 11 79 80 15 79 78 84 80 78 77 88 84 77 76 92 88 76 71 75 92 15 80 81 14 80 84 85 81 84 88 89 85 88 92 93 89 92 75 74 93 14 81 82 13 81 85 86 82 85 89 90 86 89 93 94 90 93 74 73 94 13 82 83 12 82 86 87 83 86 90 91 87 90 94 95 91 94 73 72 95 12 83 67 6 83 87 68 67 87 91 69 68 91 95 70 69 95 72 66 70 6 67 105 49 67 68 109 105 68 69 113 109 69 70 117 113 70 66 104 117 49 105 106 48 105 109 110 106 109 113 114 110 113 117 118 114 117 104 103 118 48 106 107 47 106 110 111 107 110 114 115 111 114 118 119 115 118 103 102 119 47 107 108 46 107 111 112 108 111 115 116 112 115 119 120 116 119 102 101 120 46 108 97 41 108 112 98 97 112 116 99 98 116 120 100 99 120 101 96 100 
</DataArray>
<DataArray Name="offsets" format="ascii" type="Int64">
4 8 12 16 20 24 28 32 36 40 44 48 52 56 60 64 68 72 76 80 84 88 92 96 100 104 108 112 116 120 124 128 132 136 140 144 148 152 156 160 164 168 172 176 180 184 188 192 196 200 204 208 212 216 220 224 228 232 236 240 244 248 252 256 260 264 268 272 276 280 284 288 292 296 300 304 308 312 316 320 324 328 332 336 340 344 348 352 356 360 364 368 372 376 380 384 388 392 396 400 
</DataArray>
<DataArray Name="types" format="ascii" type="Int8">
9 9 9 9 9 9 9 9 9 9 9 9 9 9 9 9 9 9 9 9 9 9 9 9 9 9 9 9 9 9 9 9 9 9 9 9 9 9 9 9 9 9 9 9 9 9 9 9 9 9 9 9 9 9 9 9 9 9 9 9 9 9 9 9 9 9 9 9 9 9 9 9 9 9 9 9 9 9 9 9 9 9 9 9 9 9 9 9 9 9 9 9 9 9 9 9 9 9 9 9 
</DataArray>
</Cells>
</Piece>
</UnstructuredGrid>
</VTKFile>
