<?xml version="1.0"?>
<VTKFile byte_order="LittleEndian" type="UnstructuredGrid" version="0.1">
<UnstructuredGrid>
<Piece NumberOfCells="288" NumberOfPoints="384">
<PointData>
<DataArray Name="Warping_X" format="ascii" type="Float64">
0.0594947 0.0863928 0.0668409 0.07317 0.0784755 0.0827634 0.0860619 0.0884089 0.0898612 0.0904839 0.0903574 0.0895697 0.0882141 0.0894363 0.0638072 0.0714013 0.0779047 0.0833063 0.0876194 0.0908734 0.0931124 0.0943955 0.0947981 0.0944037 0.0933083 0.0916164 0.0924795 0.0682876 0.0761266 0.0827978 0.0882887 0.0926176 0.0958154 0.0979308 0.099031 0.099193 0.0985111 0.0970899 0.0950397 0.0955221 0.0729337 0.0810137 0.0878443 0.0934211 0.0977562 0.100886 0.102864 0.103763 0.103669 0.102681 0.100912 0.0984836 0.0637272 0.0842094 0.0817714 0.0791821 0.0765464 0.0739611 0.0715179 0.0692996 0.0673794 0.0658195 0.0646692 0.0639645 0.0637077 0.0868813 0.0840668 0.0811066 0.0781124 0.0751891 0.0724369 0.0699449 0.0677924 0.0660464 0.0647602 0.0639729 0.0635243 0.0895314 0.0863199 0.0829678 0.0795956 0.0763179 0.0732403 0.0704602 0.0680636 0.066122 0.064693 0.0638186 0.0631773 0.0921598 0.0885299 0.0847663 0.0809973 0.0773462 0.0739274 0.070846 0.0681929 0.0660461 0.0644677 0.0635021 0.0863928 0.0639645 0.0646692 0.0658195 0.0673794 0.0692996 0.0715179 0.0739611 0.0765464 0.0791821 0.0817714 0.0842094 0.0894363 0.0639729 0.0647602 0.0660464 0.0677924 0.0699449 0.0724369 0.0751891 0.0781124 0.0811066 0.0840668 0.0868813 0.0924795 0.0638186 0.064693 0.066122 0.0680636 0.0704602 0.0732403 0.0763179 0.0795956 0.0829678 0.0863199 0.0895314 0.0955221 0.0635021 0.0644677 0.0660461 0.0681929 0.070846 0.0739274 0.0773462 0.0809973 0.0847663 0.0885299 0.0921598 0.0594947 0.0882141 0.0895697 0.0903574 0.0904839 0.0898612 0.0884089 0.0860619 0.0827634 0.0784755 0.07317 0.0668409 0.0638072 0.0916164 0.0933083 0.0944037 0.0947981 0.0943955 0.0931124 0.0908734 0.0876194 0.0833063 0.0779047 0.0714013 0.0682876 0.0950397 0.0970899 0.0985111 0.099193 0.099031 0.0979308 0.0958154 0.0926176 0.0882887 0.0827978 0.0761266 0.0729337 0.0984836 0.100912 0.102681 0.103669 0.103763 0.102864 0.100886 0.0977562 0.0934211 0.0878443 0.0810137 -0.0862121 0.0510619 0.0416768 0.0313804 0.0202386 0.00833831 -0.00422388 -0.0173296 -0.0308553 -0.0446573 -0.0585901 -0.0724933 -0.0891815 0.0551192 0.0453879 0.0346692 0.0230322 0.010565 -0.00262383 -0.0164137 -0.0306674 -0.0452321 -0.0599535 -0.0746591 -0.0921516 0.0593326 0.0492519 0.0381031 0.0259614 0.0129183 -0.00091546 -0.0154027 -0.0303991 -0.0457482 -0.0612757 -0.0768051 -0.0951204 0.063706 0.0532738 0.0416912 0.0290319 0.0153979 0.000911422 -0.0142918 -0.030051 -0.0462004 -0.0625561 -0.0789287 -0.182947 -0.0995811 -0.112438 -0.124627 -0.135996 -0.146403 -0.155709 -0.163802 -0.170571 -0.175933 -0.179812 -0.18216 -0.191848 -0.103345 -0.116974 -0.129906 -0.14197 -0.153018 -0.162905 -0.1715 -0.178695 -0.184392 -0.188516 -0.191011 -0.200909 -0.107129 -0.121554 -0.135243 -0.148025 -0.159731 -0.170209 -0.179326 -0.186955 -0.192996 -0.197373 -0.200022 -0.210126 -0.110934 -0.126172 -0.140642 -0.154158 -0.166538 -0.177628 -0.187274 -0.195352 -0.20175 -0.20638 -0.209187 -0.0862121 -0.18216 -0.179812 -0.175933 -0.170571 -0.163802 -0.155709 -0.146403 -0.135996 -0.124627 -0.112438 -0.0995811 -0.0891815 -0.191011 -0.188516 -0.184392 -0.178695 -0.1715 -0.162905 -0.153018 -0.14197 -0.129906 -0.116974 -0.103345 -0.0921516 -0.200022 -0.197373 -0.192996 -0.186955 -0.179326 -0.170209 -0.159731 -0.148025 -0.135243 -0.121554 -0.107129 -0.0951204 -0.209187 -0.20638 -0.20175 -0.195352 -0.187274 -0.177628 -0.166538 -0.154158 -0.140642 -0.126172 -0.110934 -0.0724933 -0.0585901 -0.0446573 -0.0308553 -0.0173296 -0.00422388 0.00833831 0.0202386 0.0313804 0.0416768 0.0510619 -0.0746591 -0.0599535 -0.0452321 -0.0306674 -0.0164137 -0.00262383 0.010565 0.0230322 0.0346692 0.0453879 0.0551192 -0.0768051 -0.0612757 -0.0457482 -0.0303991 -0.0154027 -0.00091546 0.0129183 0.0259614 0.0381031 0.0492519 0.0593326 -0.0789287 -0.0625561 -0.0462004 -0.030051 -0.0142918 0.000911422 0.0153979 0.0290319 0.0416912 0.0532738 0.063706 
</DataArray>
<DataArray Name="Warping_Y" format="ascii" type="Float64">
-0.115933 -0.0247727 -0.108242 -0.100165 -0.0918475 -0.0834133 -0.0749883 -0.0666867 -0.0586189 -0.0508801 -0.0435597 -0.0367298 -0.030453 -0.0235475 -0.120376 -0.112096 -0.103431 -0.094524 -0.0855126 -0.0765278 -0.0676961 -0.0591317 -0.0509399 -0.0432152 -0.0360337 -0.0294624 -0.0221591 -0.124823 -0.115931 -0.106653 -0.0971376 -0.0875296 -0.0779694 -0.0685885 -0.059515 -0.0508597 -0.0427195 -0.0351805 -0.0283099 -0.0206081 -0.129272 -0.119743 -0.109835 -0.0996917 -0.0894658 -0.0793102 -0.0693683 -0.05977 -0.0506377 -0.0420742 -0.0341699 -0.0269962 1.3002e-14 -0.019721 -0.0153137 -0.0115502 -0.0084158 -0.00588116 -0.00390503 -0.00243111 -0.0013945 -0.000718857 -0.000321625 -0.00011312 1.483e-14 -0.0183224 -0.013803 -0.00998685 -0.00685896 -0.00438588 -0.00252102 -0.00120464 -0.000364048 8.28649e-05 0.000226912 0.000165333 1.65966e-14 -0.0167619 -0.0121337 -0.0082734 -0.00516048 -0.00276055 -0.00102208 0.000121691 0.000748045 0.000947134 0.000817818 0.000465213 1.84323e-14 -0.0150401 -0.0103081 -0.00640883 -0.00332117 -0.00100656 0.000592498 0.00154669 0.00194161 0.00187394 0.00145062 0.000786269 0.0247727 0.00011312 0.000321625 0.000718857 0.0013945 0.00243111 0.00390503 0.00588116 0.0084158 0.0115502 0.0153137 0.019721 0.0235475 -0.000165333 -0.000226912 -8.28649e-05 0.000364048 0.00120464 0.00252102 0.00438588 0.00685896 0.00998685 0.013803 0.0183224 0.0221591 -0.000465213 -0.000817818 -0.000947134 -0.000748045 -0.000121691 0.00102208 0.00276055 0.00516048 0.0082734 0.0121337 0.0167619 0.0206081 -0.000786269 -0.00145062 -0.00187394 -0.00194161 -0.00154669 -0.000592498 0.00100656 0.00332117 0.00640883 0.0103081 0.0150401 0.115933 0.030453 0.0367298 0.0435597 0.0508801 0.0586189 0.0666867 0.0749883 0.0834133 0.0918475 0.100165 0.108242 0.120376 0.0294624 0.0360337 0.0432152 0.0509399 0.0591317 0.0676961 0.0765278 0.0855126 0.094524 0.103431 0.112096 0.124823 0.0283099 0.0351805 0.0427195 0.0508597 0.059515 0.0685885 0.0779694 0.0875296 0.0971376 0.106653 0.115931 0.129272 0.0269962 0.0341699 0.0420742 0.0506377 0.05977 0.0693683 0.0793102 0.0894658 0.0996917 0.109835 0.119743 0.141886 0.123208 0.129925 0.135968 0.1412 0.145503 0.14876 0.150874 0.151756 0.151341 0.149578 0.14643 0.149653 0.128203 0.13547 0.142026 0.147731 0.152453 0.156068 0.158468 0.159562 0.159273 0.157545 0.154344 0.15758 0.133232 0.141065 0.148154 0.15435 0.159507 0.163494 0.166196 0.167509 0.167353 0.165671 0.162418 0.165671 0.138287 0.146706 0.154351 0.161056 0.166665 0.17104 0.174054 0.1756 0.175588 0.173953 0.170655 -6.91913e-14 0.135952 0.128659 0.120049 0.110195 0.0991792 0.087106 0.0740933 0.0602744 0.0457958 0.0308137 0.0154923 -5.94062e-14 0.143478 0.135849 0.126816 0.116453 0.104845 0.0921081 0.0783664 0.0637622 0.0484535 0.0326057 0.0163943 -4.97643e-14 0.151162 0.143195 0.133731 0.122847 0.110641 0.0972249 0.0827371 0.0673322 0.0511747 0.0344417 0.0173172 -3.99675e-14 0.159009 0.150697 0.140796 0.129384 0.116562 0.102454 0.0872083 0.0709831 0.0539554 0.0363165 0.0182612 -0.141886 -0.0154923 -0.0308137 -0.0457958 -0.0602744 -0.0740933 -0.087106 -0.0991792 -0.110195 -0.120049 -0.128659 -0.135952 -0.149653 -0.0163943 -0.0326057 -0.0484535 -0.0637622 -0.0783664 -0.0921081 -0.104845 -0.116453 -0.126816 -0.135849 -0.143478 -0.15758 -0.0173172 -0.0344417 -0.0511747 -0.0673322 -0.0827371 -0.0972249 -0.110641 -0.122847 -0.133731 -0.143195 -0.151162 -0.165671 -0.0182612 -0.0363165 -0.0539554 -0.0709831 -0.0872083 -0.102454 -0.116562 -0.129384 -0.140796 -0.150697 -0.159009 -0.14643 -0.149578 -0.151341 -0.151756 -0.150874 -0.14876 -0.145503 -0.1412 -0.135968 -0.129925 -0.123208 -0.154344 -0.157545 -0.159273 -0.159562 -0.158468 -0.156068 -0.152453 -0.147731 -0.142026 -0.13547 -0.128203 -0.162418 -0.165671 -0.167353 -0.167509 -0.166196 -0.163494 -0.159507 -0.15435 -0.148154 -0.141065 -0.133232 -0.170655 -0.173953 -0.175588 -0.1756 -0.174054 -0.17104 -0.166665 -0.161056 -0.154351 -0.146706 -0.138287 
</DataArray>
<DataArray Name="Warping_Z" format="ascii" type="Float64">
0 0 0 0 0 0 0 0 0 0 0 0 0 0 0 0 0 0 0 0 0 0 0 0 0 0 0 0 0 0 0 0 0 0 0 0 0 0 0 0 0 0 0 0 0 0 0 0 0 0 0 0 0 0 0 0 0 0 0 0 0 0 0 0 0 0 0 0 0 0 0 0 0 0 0 0 0 0 0 0 0 0 0 0 0 0 0 0 0 0 0 0 0 0 0 0 0 0 0 0 0 0 0 0 0 0 0 0 0 0 0 0 0 0 0 0 0 0 0 0 0 0 0 0 0 0 0 0 0 0 0 0 0 0 0 0 0 0 0 0 0 0 0 0 0 0 0 0 0 0 0 0 0 0 0 0 0 0 0 0 0 0 0 0 0 0 0 0 0 0 0 0 0 0 0 0 0 0 0 0 0 0 0 0 0 0 0 0 0 0 0 0 0 0 0 0 0 0 0 0 0 0 0 0 0 0 0 0 0 0 0 0 0 0 0 0 0 0 0 0 0 0 0 0 0 0 0 0 0 0 0 0 0 0 0 0 0 0 0 0 0 0 0 0 0 0 0 0 0 0 0 0 0 0 0 0 0 0 0 0 0 0 0 0 0 0 0 0 0 0 0 0 0 0 0 0 0 0 0 0 0 0 0 0 0 0 0 0 0 0 0 0 0 0 0 0 0 0 0 0 0 0 0 0 0 0 0 0 0 0 0 0 0 0 0 0 0 0 0 0 0 0 0 0 0 0 0 0 0 0 0 0 0 0 0 0 0 0 0 0 0 0 0 0 0 0 0 0 0 0 0 0 0 0 0 0 0 0 0 0 0 0 0 0 0 0 0 0 0 0 0 0 0 0 0 0 0 0 0 0 0 0 0 0 
</DataArray>
</PointData>
<CellData>
<DataArray Name="MaterialId" format="ascii" type="Float64">
1 1 1 1 1 1 1 1 1 1 1 1 1 1 1 1 1 1 1 1 1 1 1 1 1 1 1 1 1 1 1 1 1 1 1 1 1 1 1 1 1 1 1 1 1 1 1 1 1 1 1 1 1 1 1 1 1 1 1 1 1 1 1 1 1 1 1 1 1 1 1 1 1 1 1 1 1 1 1 1 1 1 1 1 1 1 1 1 1 1 1 1 1 1 1 1 1 1 1 1 1 1 1 1 1 1 1 1 1 1 1 1 1 1 1 1 1 1 1 1 1 1 1 1 1 1 1 1 1 1 1 1 1 1 1 1 1 1 1 1 1 1 1 1 2 2 2 2 2 2 2 2 2 2 2 2 2 2 2 2 2 2 2 2 2 2 2 2 2 2 2 2 2 2 2 2 2 2 2 2 2 2 2 2 2 2 2 2 2 2 2 2 2 2 2 2 2 2 2 2 2 2 2 2 2 2 2 2 2 2 2 2 2 2 2 2 2 2 2 2 2 2 2 2 2 2 2 2 2 2 2 2 2 2 2 2 2 2 2 2 2 2 2 2 2 2 2 2 2 2 2 2 2 2 2 2 2 2 2 2 2 2 2 2 2 2 2 2 2 2 2 2 2 2 2 2 2 2 2 2 2 2 2 2 2 2 2 2 
</DataArray>
<DataArray Name="FiberAngle" format="ascii" type="Float64">
0 0 0 0 0 0 0 0 0 0 0 0 0 0 0 0 0 0 0 0 0 0 0 0 0 0 0 0 0 0 0 0 0 0 0 0 0 0 0 0 0 0 0 0 0 0 0 0 0 0 0 0 0 0 0 0 0 0 0 0 0 0 0 0 0 0 0 0 0 0 0 0 0 0 0 0 0 0 0 0 0 0 0 0 0 0 0 0 0 0 0 0 0 0 0 0 0 0 0 0 0 0 0 0 0 0 0 0 0 0 0 0 0 0 0 0 0 0 0 0 0 0 0 0 0 0 0 0 0 0 0 0 0 0 0 0 0 0 0 0 0 0 0 0 0 0 0 0 0 0 0 0 0 0 0 0 0 0 0 0 0 0 0 0 0 0 0 0 0 0 0 0 0 0 0 0 0 0 0 0 0 0 0 0 0 0 0 0 0 0 0 0 0 0 0 0 0 0 0 0 0 0 0 0 0 0 0 0 0 0 0 0 0 0 0 0 0 0 0 0 0 0 0 0 0 0 0 0 0 0 0 0 0 0 0 0 0 0 0 0 0 0 0 0 0 0 0 0 0 0 0 0 0 0 0 0 0 0 0 0 0 0 0 0 0 0 0 0 0 0 0 0 0 0 0 0 0 0 0 0 0 0 0 0 0 0 0 0 
</DataArray>
<DataArray Name="Strain_11" format="ascii" type="Float64">
-1.28835 -1.20116 -1.11437 -1.02842 -0.943785 -0.860843 -0.779945 -0.70143 -0.625653 -0.552923 -0.483556 -0.417856 -1.28588 -1.19585 -1.10585 -1.01703 -0.929553 -0.843777 -0.760097 -0.678866 -0.600421 -0.525111 -0.453247 -0.385143 -1.28316 -1.19016 -1.09738 -1.00562 -0.915242 -0.826628 -0.740145 -0.656171 -0.575068 -0.497167 -0.422806 -0.352311 -0.356091 -0.298536 -0.245414 -0.196965 -0.153378 -0.114833 -0.0815033 -0.0535167 -0.030985 -0.0140051 -0.00265332 0.00303566 -0.321091 -0.261367 -0.206228 -0.155898 -0.110596 -0.0705405 -0.0358674 -0.00674502 0.0166976 0.0343765 0.0461961 0.0521231 -0.285985 -0.224119 -0.166966 -0.11479 -0.0678136 -0.0262469 0.00973444 0.0399661 0.0643097 0.0826635 0.0949467 0.101103 0.00303566 -0.00265332 -0.0140051 -0.030985 -0.0535167 -0.0815033 -0.114833 -0.153378 -0.196965 -0.245414 -0.298536 -0.356091 0.0521231 0.0461961 0.0343765 0.0166976 -0.00674502 -0.0358674 -0.0705405 -0.110596 -0.155898 -0.206228 -0.261367 -0.321091 0.101103 0.0949467 0.0826635 0.0643097 0.0399661 0.00973444 -0.0262469 -0.0678136 -0.11479 -0.166966 -0.224119 -0.285985 -0.417856 -0.483556 -0.552923 -0.625653 -0.70143 -0.779945 -0.860843 -0.943785 -1.02842 -1.11437 -1.20116 -1.28835 -0.385143 -0.453247 -0.525111 -0.600421 -0.678866 -0.760097 -0.843777 -0.929553 -1.01703 -1.10585 -1.19585 -1.28588 -0.352311 -0.422806 -0.497167 -0.575068 -0.656171 -0.740145 -0.826628 -0.915242 -1.00562 -1.09738 -1.19016 -1.28316 -1.38524 -1.47161 -1.55717 -1.64175 -1.72502 -1.80668 -1.88639 -1.96385 -2.03872 -2.11071 -2.1795 -2.2448 -1.37562 -1.46698 -1.55676 -1.64574 -1.73336 -1.81926 -1.90304 -1.98436 -2.06286 -2.13821 -2.21008 -2.27817 -1.36788 -1.4625 -1.55678 -1.64998 -1.74178 -1.83175 -1.91947 -2.00454 -2.08658 -2.16523 -2.24016 -2.31104 -2.30633 -2.36379 -2.41696 -2.46556 -2.50938 -2.54822 -2.58186 -2.61015 -2.63297 -2.65018 -2.6617 -2.66747 -2.34219 -2.40186 -2.45693 -2.50718 -2.5524 -2.59236 -2.62695 -2.65599 -2.67937 -2.69699 -2.70877 -2.71468 -2.37758 -2.43949 -2.49654 -2.54851 -2.59519 -2.63641 -2.67202 -2.70188 -2.7259 -2.74398 -2.75608 -2.76213 -2.66747 -2.6617 -2.65018 -2.63297 -2.61015 -2.58186 -2.54822 -2.50938 -2.46556 -2.41696 -2.36379 -2.30633 -2.71468 -2.70877 -2.69699 -2.67937 -2.65599 -2.62695 -2.59236 -2.5524 -2.50718 -2.45693 -2.40186 -2.34219 -2.76213 -2.75608 -2.74398 -2.7259 -2.70188 -2.67202 -2.63641 -2.59519 -2.54851 -2.49654 -2.43949 -2.37758 -2.2448 -2.1795 -2.11071 -2.03872 -1.96385 -1.88639 -1.80668 -1.72502 -1.64175 -1.55717 -1.47161 -1.38524 -2.27817 -2.21008 -2.13821 -2.06286 -1.98436 -1.90304 -1.81926 -1.73336 -1.64574 -1.55676 -1.46698 -1.37562 -2.31104 -2.24016 -2.16523 -2.08658 -2.00454 -1.91947 -1.83175 -1.74178 -1.64998 -1.55678 -1.4625 -1.36788 
</DataArray>
<DataArray Name="Strain_22" format="ascii" type="Float64">
-1.28837 -1.20019 -1.11371 -1.02803 -0.943655 -0.8609 -0.780166 -0.701745 -0.626003 -0.553253 -0.483798 -0.417954 -1.28718 -1.19556 -1.10587 -1.01708 -0.929554 -0.843775 -0.760065 -0.678819 -0.600372 -0.525041 -0.453174 -0.385064 -1.28607 -1.19089 -1.09816 -1.00613 -0.915529 -0.826706 -0.74008 -0.655998 -0.574842 -0.496949 -0.422645 -0.352264 -0.35599 -0.298191 -0.244799 -0.196045 -0.152148 -0.113299 -0.0796736 -0.0514237 -0.0286671 -0.0115087 -3.19901e-05 0.00571921 -0.32101 -0.26129 -0.206143 -0.155823 -0.110534 -0.0704667 -0.0358097 -0.00669197 0.0167469 0.0344176 0.0462443 0.0521628 -0.2861 -0.224431 -0.167519 -0.115593 -0.0688797 -0.0275819 0.00814606 0.0381498 0.0622992 0.0804949 0.0926694 0.098773 0.00571921 -3.19901e-05 -0.0115087 -0.0286671 -0.0514237 -0.0796736 -0.113299 -0.152148 -0.196045 -0.244799 -0.298191 -0.35599 0.0521628 0.0462443 0.0344176 0.0167469 -0.00669197 -0.0358097 -0.0704667 -0.110534 -0.155823 -0.206143 -0.26129 -0.32101 0.098773 0.0926694 0.0804949 0.0622992 0.0381498 0.00814606 -0.0275819 -0.0688797 -0.115593 -0.167519 -0.224431 -0.2861 -0.417954 -0.483798 -0.553253 -0.626003 -0.701745 -0.780166 -0.8609 -0.943655 -1.02803 -1.11371 -1.20019 -1.28837 -0.385064 -0.453174 -0.525041 -0.600372 -0.678819 -0.760065 -0.843775 -0.929554 -1.01708 -1.10587 -1.19556 -1.28718 -0.352264 -0.422645 -0.496949 -0.574842 -0.655998 -0.74008 -0.826706 -0.915529 -1.00613 -1.09816 -1.19089 -1.28607 -1.37467 -1.4599 -1.54717 -1.63321 -1.71799 -1.80109 -1.88209 -1.96068 -2.03648 -2.10915 -2.17839 -2.2439 -1.3783 -1.46734 -1.55689 -1.64565 -1.73296 -1.81859 -1.90216 -1.98328 -2.06164 -2.1369 -2.20872 -2.27682 -1.38145 -1.47416 -1.56658 -1.65802 -1.74804 -1.83634 -1.92254 -2.00631 -2.08729 -2.16516 -2.23959 -2.31025 -2.3054 -2.36263 -2.41538 -2.46343 -2.5066 -2.54472 -2.57766 -2.60528 -2.6275 -2.64423 -2.65541 -2.66102 -2.34088 -2.40063 -2.45582 -2.5062 -2.55155 -2.59169 -2.62642 -2.6556 -2.6791 -2.69682 -2.70868 -2.71461 -2.37682 -2.43903 -2.49657 -2.54919 -2.59664 -2.63867 -2.67511 -2.70576 -2.73046 -2.7491 -2.76158 -2.76784 -2.66102 -2.65541 -2.64423 -2.6275 -2.60528 -2.57766 -2.54472 -2.5066 -2.46343 -2.41538 -2.36263 -2.3054 -2.71461 -2.70868 -2.69682 -2.6791 -2.6556 -2.62642 -2.59169 -2.55155 -2.5062 -2.45582 -2.40063 -2.34088 -2.76784 -2.76158 -2.7491 -2.73046 -2.70576 -2.67511 -2.63867 -2.59664 -2.54919 -2.49657 -2.43903 -2.37682 -2.2439 -2.17839 -2.10915 -2.03648 -1.96068 -1.88209 -1.80109 -1.71799 -1.63321 -1.54717 -1.4599 -1.37467 -2.27682 -2.20872 -2.1369 -2.06164 -1.98328 -1.90216 -1.81859 -1.73296 -1.64565 -1.55689 -1.46734 -1.3783 -2.31025 -2.23959 -2.16516 -2.08729 -2.00631 -1.92254 -1.83634 -1.74804 -1.65802 -1.56658 -1.47416 -1.38145 
</DataArray>
<DataArray Name="Strain_12" format="ascii" type="Float64">
0.000473672 -0.000613044 -0.000205535 -0.000180026 -0.000100135 4.347e-05 0.000243917 0.000456396 0.000705092 0.000957215 0.00118979 0.00141258 0.000141653 2.25708e-05 0.000148279 0.000141718 0.000135529 0.000132575 0.00012041 0.000119729 0.000107663 8.35406e-05 8.388e-05 6.30092e-05 -0.000409211 0.000572732 0.000175917 0.000197458 0.000147663 2.51546e-05 -0.000126752 -0.00032631 -0.000530441 -0.000742544 -0.000960743 -0.00115566 0.00159668 0.00174414 0.00183576 0.00186756 0.00184548 0.00175776 0.00160224 0.00140486 0.00114196 0.000849709 0.00051968 0.00017688 4.9174e-05 4.35165e-05 2.2401e-05 2.64323e-05 3.12943e-06 3.52178e-07 9.74434e-06 -1.07733e-05 -4.95807e-06 -1.65655e-06 -2.02475e-06 -9.13921e-07 -0.00132481 -0.00145465 -0.00154381 -0.00158357 -0.00156681 -0.00149027 -0.0013817 -0.00119754 -0.0009785 -0.000734004 -0.000446453 -0.000152377 -0.00017688 -0.00051968 -0.000849709 -0.00114196 -0.00140486 -0.00160224 -0.00175776 -0.00184548 -0.00186756 -0.00183576 -0.00174414 -0.00159668 9.13921e-07 2.02475e-06 1.65655e-06 4.95807e-06 1.07733e-05 -9.74434e-06 -3.52178e-07 -3.12943e-06 -2.64323e-05 -2.2401e-05 -4.35165e-05 -4.9174e-05 0.000152377 0.000446453 0.000734004 0.0009785 0.00119754 0.0013817 0.00149027 0.00156681 0.00158357 0.00154381 0.00145465 0.00132481 -0.00141258 -0.00118979 -0.000957215 -0.000705092 -0.000456396 -0.000243917 -4.347e-05 0.000100135 0.000180026 0.000205535 0.000613044 -0.000473672 -6.30092e-05 -8.388e-05 -8.35406e-05 -0.000107663 -0.000119729 -0.00012041 -0.000132575 -0.000135529 -0.000141718 -0.000148279 -2.25708e-05 -0.000141653 0.00115566 0.000960743 0.000742544 0.000530441 0.00032631 0.000126752 -2.51546e-05 -0.000147663 -0.000197458 -0.000175917 -0.000572732 0.000409211 0.00233444 -0.00148623 -0.00208375 -0.00283622 -0.0032474 -0.00334168 -0.00316644 -0.00273918 -0.00214179 -0.0014101 -0.000590202 0.000240324 0.00151401 0.0021658 0.00197756 0.00201556 0.00190332 0.00177054 0.00159866 0.00138389 0.00115748 0.00092903 0.00067428 0.00044736 0.000690029 0.00373505 0.00455354 0.00518333 0.00549792 0.00544297 0.00507636 0.00446277 0.0036322 0.00266094 0.0016218 0.000560887 0.00104582 0.00176624 0.00237096 0.00282692 0.00310161 0.00319177 0.00310171 0.00281454 0.00238261 0.00180152 0.00112637 0.000381278 0.000229833 2.7928e-05 -0.000125559 -0.000270914 -0.000347015 -0.000403561 -0.000433623 -0.000392535 -0.000347447 -0.000271726 -0.000170413 -5.79978e-05 -0.000454235 -0.00137411 -0.00214641 -0.00273709 -0.00312687 -0.0033043 -0.00323718 -0.00298946 -0.00254262 -0.00192704 -0.00121134 -0.000410425 -0.000381278 -0.00112637 -0.00180152 -0.00238261 -0.00281454 -0.00310171 -0.00319177 -0.00310161 -0.00282692 -0.00237096 -0.00176624 -0.00104582 5.79978e-05 0.000170413 0.000271726 0.000347447 0.000392535 0.000433623 0.000403561 0.000347015 0.000270914 0.000125559 -2.7928e-05 -0.000229833 0.000410425 0.00121134 0.00192704 0.00254262 0.00298946 0.00323718 0.0033043 0.00312687 0.00273709 0.00214641 0.00137411 0.000454235 -0.000240324 0.000590202 0.0014101 0.00214179 0.00273918 0.00316644 0.00334168 0.0032474 0.00283622 0.00208375 0.00148623 -0.00233444 -0.00044736 -0.00067428 -0.00092903 -0.00115748 -0.00138389 -0.00159866 -0.00177054 -0.00190332 -0.00201556 -0.00197756 -0.0021658 -0.00151401 -0.000560887 -0.0016218 -0.00266094 -0.0036322 -0.00446277 -0.00507636 -0.00544297 -0.00549792 -0.00518333 -0.00455354 -0.00373505 -0.000690029 
</DataArray>
<DataArray Name="Strain_13" format="ascii" type="Float64">
0 0 0 0 0 0 0 0 0 0 0 0 0 0 0 0 0 0 0 0 0 0 0 0 0 0 0 0 0 0 0 0 0 0 0 0 0 0 0 0 0 0 0 0 0 0 0 0 0 0 0 0 0 0 0 0 0 0 0 0 0 0 0 0 0 0 0 0 0 0 0 0 0 0 0 0 0 0 0 0 0 0 0 0 0 0 0 0 0 0 0 0 0 0 0 0 0 0 0 0 0 0 0 0 0 0 0 0 0 0 0 0 0 0 0 0 0 0 0 0 0 0 0 0 0 0 0 0 0 0 0 0 0 0 0 0 0 0 0 0 0 0 0 0 0 0 0 0 0 0 0 0 0 0 0 0 0 0 0 0 0 0 0 0 0 0 0 0 0 0 0 0 0 0 0 0 0 0 0 0 0 0 0 0 0 0 0 0 0 0 0 0 0 0 0 0 0 0 0 0 0 0 0 0 0 0 0 0 0 0 0 0 0 0 0 0 0 0 0 0 0 0 0 0 0 0 0 0 0 0 0 0 0 0 0 0 0 0 0 0 0 0 0 0 0 0 0 0 0 0 0 0 0 0 0 0 0 0 0 0 0 0 0 0 0 0 0 0 0 0 0 0 0 0 0 0 0 0 0 0 0 0 0 0 0 0 0 0 
</DataArray>
<DataArray Name="Strain_23" format="ascii" type="Float64">
0 0 0 0 0 0 0 0 0 0 0 0 0 0 0 0 0 0 0 0 0 0 0 0 0 0 0 0 0 0 0 0 0 0 0 0 0 0 0 0 0 0 0 0 0 0 0 0 0 0 0 0 0 0 0 0 0 0 0 0 0 0 0 0 0 0 0 0 0 0 0 0 0 0 0 0 0 0 0 0 0 0 0 0 0 0 0 0 0 0 0 0 0 0 0 0 0 0 0 0 0 0 0 0 0 0 0 0 0 0 0 0 0 0 0 0 0 0 0 0 0 0 0 0 0 0 0 0 0 0 0 0 0 0 0 0 0 0 0 0 0 0 0 0 0 0 0 0 0 0 0 0 0 0 0 0 0 0 0 0 0 0 0 0 0 0 0 0 0 0 0 0 0 0 0 0 0 0 0 0 0 0 0 0 0 0 0 0 0 0 0 0 0 0 0 0 0 0 0 0 0 0 0 0 0 0 0 0 0 0 0 0 0 0 0 0 0 0 0 0 0 0 0 0 0 0 0 0 0 0 0 0 0 0 0 0 0 0 0 0 0 0 0 0 0 0 0 0 0 0 0 0 0 0 0 0 0 0 0 0 0 0 0 0 0 0 0 0 0 0 0 0 0 0 0 0 0 0 0 0 0 0 0 0 0 0 0 0 
</DataArray>
<DataArray Name="Strain_33" format="ascii" type="Float64">
1 1 1 1 1 1 1 1 1 1 1 1 1 1 1 1 1 1 1 1 1 1 1 1 1 1 1 1 1 1 1 1 1 1 1 1 1 1 1 1 1 1 1 1 1 1 1 1 1 1 1 1 1 1 1 1 1 1 1 1 1 1 1 1 1 1 1 1 1 1 1 1 1 1 1 1 1 1 1 1 1 1 1 1 1 1 1 1 1 1 1 1 1 1 1 1 1 1 1 1 1 1 1 1 1 1 1 1 1 1 1 1 1 1 1 1 1 1 1 1 1 1 1 1 1 1 1 1 1 1 1 1 1 1 1 1 1 1 1 1 1 1 1 1 1 1 1 1 1 1 1 1 1 1 1 1 1 1 1 1 1 1 1 1 1 1 1 1 1 1 1 1 1 1 1 1 1 1 1 1 1 1 1 1 1 1 1 1 1 1 1 1 1 1 1 1 1 1 1 1 1 1 1 1 1 1 1 1 1 1 1 1 1 1 1 1 1 1 1 1 1 1 1 1 1 1 1 1 1 1 1 1 1 1 1 1 1 1 1 1 1 1 1 1 1 1 1 1 1 1 1 1 1 1 1 1 1 1 1 1 1 1 1 1 1 1 1 1 1 1 1 1 1 1 1 1 1 1 1 1 1 1 1 1 1 1 1 1 
</DataArray>
<DataArray Name="Stress_11" format="ascii" type="Float64">
-151.16 -139.023 -126.978 -115.047 -103.3 -91.7854 -80.554 -69.6519 -59.1282 -49.0262 -39.3895 -30.2605 -150.853 -138.305 -125.813 -113.478 -101.327 -89.4134 -77.7903 -66.5078 -55.6127 -45.1523 -35.1711 -25.7121 -150.52 -137.542 -124.658 -111.906 -99.3472 -87.0338 -75.0183 -63.3522 -52.0865 -41.2672 -30.9409 -21.153 -21.6765 -13.6759 -6.29047 0.447108 6.50944 11.8713 16.5087 20.403 23.5387 25.902 27.4821 28.2739 -16.816 -8.52105 -0.862668 6.12732 12.419 17.9825 22.7978 26.8424 30.0983 32.5534 34.1952 35.0182 -11.9455 -3.35854 4.57266 11.8124 18.3296 24.0953 29.0857 33.2782 36.6538 39.1986 40.9016 41.7551 28.2739 27.4821 25.902 23.5387 20.403 16.5087 11.8713 6.50944 0.447108 -6.29047 -13.6759 -21.6765 35.0182 34.1952 32.5534 30.0983 26.8424 22.7978 17.9825 12.419 6.12732 -0.862668 -8.52105 -16.816 41.7551 40.9016 39.1986 36.6538 33.2782 29.0857 24.0953 18.3296 11.8124 4.57266 -3.35854 -11.9455 -30.2605 -39.3895 -49.0262 -59.1282 -69.6519 -80.554 -91.7854 -103.3 -115.047 -126.978 -139.023 -151.16 -25.7121 -35.1711 -45.1523 -55.6127 -66.5078 -77.7903 -89.4134 -101.327 -113.478 -125.813 -138.305 -150.853 -21.153 -30.9409 -41.2672 -52.0865 -63.3522 -75.0183 -87.0338 -99.3472 -111.906 -124.658 -137.542 -150.52 -16.4323 -17.6288 -18.8218 -20.0005 -21.1613 -22.2995 -23.4102 -24.4891 -25.5316 -26.5333 -27.49 -28.3975 -16.3356 -17.598 -18.8443 -20.0794 -21.2956 -22.4878 -23.6509 -24.7798 -25.8697 -26.9159 -27.914 -28.8597 -16.2582 -17.5671 -18.8714 -20.1609 -21.431 -22.6759 -23.89 -25.068 -26.2045 -27.2947 -28.334 -29.3178 -29.252 -30.0495 -30.7867 -31.4602 -32.067 -32.6044 -33.0697 -33.4608 -33.776 -34.0138 -34.1728 -34.2525 -29.749 -30.578 -31.3432 -32.0414 -32.6698 -33.2254 -33.7061 -34.1099 -34.4349 -34.6799 -34.8438 -34.9259 -30.242 -31.1027 -31.8965 -32.6201 -33.2706 -33.8453 -34.3422 -34.7592 -35.0946 -35.3473 -35.5164 -35.601 -34.2525 -34.1728 -34.0138 -33.776 -33.4608 -33.0697 -32.6044 -32.067 -31.4602 -30.7867 -30.0495 -29.252 -34.9259 -34.8438 -34.6799 -34.4349 -34.1099 -33.7061 -33.2254 -32.6698 -32.0414 -31.3432 -30.578 -29.749 -35.601 -35.5164 -35.3473 -35.0946 -34.7592 -34.3422 -33.8453 -33.2706 -32.6201 -31.8965 -31.1027 -30.242 -28.3975 -27.49 -26.5333 -25.5316 -24.4891 -23.4102 -22.2995 -21.1613 -20.0005 -18.8218 -17.6288 -16.4323 -28.8597 -27.914 -26.9159 -25.8697 -24.7798 -23.6509 -22.4878 -21.2956 -20.0794 -18.8443 -17.598 -16.3356 -29.3178 -28.334 -27.2947 -26.2045 -25.068 -23.89 -22.6759 -21.431 -20.1609 -18.8714 -17.5671 -16.2582 
</DataArray>
<DataArray Name="Stress_22" format="ascii" type="Float64">
-151.162 -138.942 -126.922 -115.015 -103.289 -91.7901 -80.5724 -69.6781 -59.1573 -49.0538 -39.4097 -30.2686 -150.961 -138.281 -125.815 -113.482 -101.327 -89.4133 -77.7877 -66.5039 -55.6086 -45.1465 -35.1651 -25.7055 -150.762 -137.603 -124.722 -111.949 -99.371 -87.0404 -75.0129 -63.3379 -52.0676 -41.249 -30.9274 -21.1491 -21.6681 -13.6472 -6.23918 0.523803 6.61199 11.9992 16.6612 20.5775 23.7318 26.11 27.7005 28.4976 -16.8092 -8.51462 -0.855569 6.13362 12.4241 17.9887 22.8026 26.8469 30.1024 32.5569 34.1993 35.0215 -11.9552 -3.3845 4.52664 11.7455 18.2408 23.984 28.9533 33.1268 36.4863 39.0179 40.7118 41.561 28.4976 27.7005 26.11 23.7318 20.5775 16.6612 11.9992 6.61199 0.523803 -6.23918 -13.6472 -21.6681 35.0215 34.1993 32.5569 30.1024 26.8469 22.8026 17.9887 12.4241 6.13362 -0.855569 -8.51462 -16.8092 41.561 40.7118 39.0179 36.4863 33.1268 28.9533 23.984 18.2408 11.7455 4.52664 -3.3845 -11.9552 -30.2686 -39.4097 -49.0538 -59.1573 -69.6781 -80.5724 -91.7901 -103.289 -115.015 -126.922 -138.942 -151.162 -25.7055 -35.1651 -45.1465 -55.6086 -66.5039 -77.7877 -89.4133 -101.327 -113.482 -125.815 -138.281 -150.961 -21.1491 -30.9274 -41.249 -52.0676 -63.3379 -75.0129 -87.0404 -99.371 -111.949 -124.722 -137.603 -150.762 -16.3442 -17.5311 -18.7385 -19.9294 -21.1027 -22.2529 -23.3744 -24.4627 -25.5129 -26.5203 -27.4808 -28.3899 -16.3579 -17.6009 -18.8454 -20.0787 -21.2923 -22.4822 -23.6435 -24.7708 -25.8595 -26.905 -27.9027 -28.8485 -16.3713 -17.6643 -18.9531 -20.2279 -21.4832 -22.7142 -23.9156 -25.0827 -26.2104 -27.2941 -28.3292 -29.3112 -29.2442 -30.0398 -30.7735 -31.4425 -32.0438 -32.5753 -33.0347 -33.4202 -33.7304 -33.9642 -34.1204 -34.1987 -29.7381 -30.5677 -31.3339 -32.0332 -32.6628 -33.2198 -33.7017 -34.1067 -34.4327 -34.6785 -34.843 -34.9254 -30.2357 -31.0989 -31.8967 -32.6257 -33.2826 -33.8642 -34.3679 -34.7914 -35.1326 -35.39 -35.5622 -35.6486 -34.1987 -34.1204 -33.9642 -33.7304 -33.4202 -33.0347 -32.5753 -32.0438 -31.4425 -30.7735 -30.0398 -29.2442 -34.9254 -34.843 -34.6785 -34.4327 -34.1067 -33.7017 -33.2198 -32.6628 -32.0332 -31.3339 -30.5677 -29.7381 -35.6486 -35.5622 -35.39 -35.1326 -34.7914 -34.3679 -33.8642 -33.2826 -32.6257 -31.8967 -31.0989 -30.2357 -28.3899 -27.4808 -26.5203 -25.5129 -24.4627 -23.3744 -22.2529 -21.1027 -19.9294 -18.7385 -17.5311 -16.3442 -28.8485 -27.9027 -26.905 -25.8595 -24.7708 -23.6435 -22.4822 -21.2923 -20.0787 -18.8454 -17.6009 -16.3579 -29.3112 -28.3292 -27.2941 -26.2104 -25.0827 -23.9156 -22.7142 -21.4832 -20.2279 -18.9531 -17.6643 -16.3713 
</DataArray>
<DataArray Name="Stress_12" format="ascii" type="Float64">
0.0197365 -0.0255437 -0.00856403 -0.00750114 -0.00417233 0.00181127 0.0101633 0.0190167 0.0293791 0.0398843 0.0495751 0.0588581 0.00590227 0.000940456 0.00617835 0.00590496 0.00564708 0.005524 0.00501714 0.00498876 0.00448601 0.00348089 0.00349503 0.0026254 -0.0170506 0.023864 0.00732992 0.0082275 0.00615266 0.00104812 -0.00528139 -0.0135964 -0.0221019 -0.0309396 -0.0400313 -0.048153 0.0665289 0.0726732 0.0764906 0.0778156 0.0768957 0.0732407 0.0667607 0.0585365 0.0475819 0.0354048 0.0216535 0.00737005 0.00204893 0.0018132 0.000933384 0.00110136 0.000130394 1.46742e-05 0.000406017 -0.00044889 -0.000206588 -6.90236e-05 -8.43654e-05 -3.80804e-05 -0.055201 -0.0606107 -0.0643258 -0.0659825 -0.0652843 -0.0620953 -0.0575713 -0.0498981 -0.0407712 -0.0305837 -0.0186024 -0.0063491 -0.00737005 -0.0216535 -0.0354048 -0.0475819 -0.0585365 -0.0667607 -0.0732407 -0.0768957 -0.0778156 -0.0764906 -0.0726732 -0.0665289 3.80804e-05 8.43654e-05 6.90236e-05 0.000206588 0.00044889 -0.000406017 -1.46742e-05 -0.000130394 -0.00110136 -0.000933384 -0.0018132 -0.00204893 0.0063491 0.0186024 0.0305837 0.0407712 0.0498981 0.0575713 0.0620953 0.0652843 0.0659825 0.0643258 0.0606107 0.055201 -0.0588581 -0.0495751 -0.0398843 -0.0293791 -0.0190167 -0.0101633 -0.00181127 0.00417233 0.00750114 0.00856403 0.0255437 -0.0197365 -0.0026254 -0.00349503 -0.00348089 -0.00448601 -0.00498876 -0.00501714 -0.005524 -0.00564708 -0.00590496 -0.00617835 -0.000940456 -0.00590227 0.048153 0.0400313 0.0309396 0.0221019 0.0135964 0.00528139 -0.00104812 -0.00615266 -0.0082275 -0.00732992 -0.023864 0.0170506 0.00972691 -0.00619265 -0.00868238 -0.0118177 -0.0135309 -0.0139238 -0.0131936 -0.0114133 -0.0089242 -0.00587545 -0.0024592 0.00100136 0.00630841 0.00902426 0.00823991 0.00839824 0.00793058 0.00737732 0.00666114 0.00576626 0.00482288 0.00387099 0.00280952 0.00186401 0.00287514 0.0155628 0.0189732 0.0215974 0.0229082 0.0226792 0.0211517 0.018595 0.0151343 0.0110873 0.00675755 0.00233705 0.00435761 0.00735939 0.0098791 0.0117789 0.0129235 0.0132992 0.0129239 0.0117273 0.0099276 0.0075064 0.00469325 0.00158867 0.000957646 0.000116368 -0.000523168 -0.00112882 -0.00144591 -0.00168152 -0.00180678 -0.00163558 -0.00144771 -0.0011322 -0.000710062 -0.00024166 -0.00189266 -0.0057255 -0.00894345 -0.0114046 -0.0130287 -0.013768 -0.0134883 -0.0124562 -0.0105943 -0.0080294 -0.0050473 -0.00171012 -0.00158867 -0.00469325 -0.0075064 -0.0099276 -0.0117273 -0.0129239 -0.0132992 -0.0129235 -0.0117789 -0.0098791 -0.00735939 -0.00435761 0.00024166 0.000710062 0.0011322 0.00144771 0.00163558 0.00180678 0.00168152 0.00144591 0.00112882 0.000523168 -0.000116368 -0.000957646 0.00171012 0.0050473 0.0080294 0.0105943 0.0124562 0.0134883 0.013768 0.0130287 0.0114046 0.00894345 0.0057255 0.00189266 -0.00100136 0.0024592 0.00587545 0.0089242 0.0114133 0.0131936 0.0139238 0.0135309 0.0118177 0.00868238 0.00619265 -0.00972691 -0.00186401 -0.00280952 -0.00387099 -0.00482288 -0.00576626 -0.00666114 -0.00737732 -0.00793058 -0.00839824 -0.00823991 -0.00902426 -0.00630841 -0.00233705 -0.00675755 -0.0110873 -0.0151343 -0.018595 -0.0211517 -0.0226792 -0.0229082 -0.0215974 -0.0189732 -0.0155628 -0.00287514 
</DataArray>
<DataArray Name="Stress_13" format="ascii" type="Float64">