<?xml version="1.0"?>
<VTKFile byte_order="LittleEndian" type="UnstructuredGrid" version="0.1">
<UnstructuredGrid>
<Piece NumberOfCells="288" NumberOfPoints="384">
<PointData>
<DataArray Name="Warping_X" format="ascii" type="Float64">
-0 -0 0 0 0 0 0 0 0 0 0 0 0 0 0 0 0 0 0 0 0 0 0 0 0 0 0 0 0 0 0 0 0 0 0 0 0 0 0 0 0 0 0 0 0 0 0 0 0 0 0 0 0 0 0 0 0 0 0 0 0 0 0 0 0 0 0 0 0 0 0 0 0 0 0 0 0 0 0 0 0 0 0 0 0 0 0 0 0 0 0 0 0 0 0 0 0 0 0 0 -0 0 0 0 0 0 0 0 0 0 0 0 0 0 0 0 0 0 0 0 0 0 0 0 0 0 0 0 0 0 0 0 0 0 0 0 0 0 0 0 0 0 0 0 0 0 0 0 0 0 0 0 0 0 0 0 0 0 0 0 0 0 0 0 0 0 0 0 0 0 0 0 0 0 0 0 0 0 0 0 0 0 0 0 0 0 0 0 0 0 0 0 0 0 0 0 -0 -0 0 0 0 0 0 0 0 0 0 0 0 0 0 0 0 0 0 0 0 0 0 0 0 0 0 0 0 0 0 0 0 0 0 0 0 0 0 0 0 0 0 0 0 0 0 0 0 0 0 0 0 0 0 0 0 0 0 0 0 0 0 0 0 0 0 0 0 0 0 0 0 0 0 0 0 0 0 0 0 0 0 0 0 0 0 0 0 0 0 0 0 0 0 0 -0 0 0 0 0 0 0 0 0 0 0 0 0 0 0 0 0 0 0 0 0 0 0 0 0 0 0 0 0 0 0 0 0 0 0 0 0 0 0 0 0 0 0 0 0 0 0 0 0 0 0 0 0 0 0 0 0 0 0 0 0 0 0 0 0 0 0 0 0 0 0 0 0 0 0 0 0 0 0 0 0 0 0 0 0 0 0 0 0 0 0 0 
</DataArray>
<DataArray Name="Warping_Y" format="ascii" type="Float64">
0 -0 0 0 0 0 0 0 0 0 0 0 0 0 -0 0 0 0 0 0 0 0 0 0 0 0 0 -0 0 0 0 0 0 0 0 0 0 0 0 0 0 0 0 0 0 0 0 0 0 0 0 0 -0 0 0 0 0 0 0 0 0 0 0 0 0 0 0 0 0 0 0 0 0 0 0 0 0 0 0 0 0 0 0 0 0 0 0 0 0 0 0 0 0 0 0 0 0 0 0 0 -0 0 0 0 0 0 0 0 0 0 0 0 0 0 0 0 0 0 0 0 0 0 0 0 0 0 0 0 0 0 0 0 0 0 0 0 0 0 0 0 0 0 0 0 0 0 0 0 0 0 0 0 0 0 0 0 0 0 0 0 0 0 0 0 0 0 0 0 0 0 0 0 0 0 0 0 0 0 0 0 0 0 0 0 0 0 0 0 0 0 0 0 0 0 0 0 -0 0 0 0 0 0 0 0 0 0 0 0 0 0 0 0 0 0 0 0 0 0 0 0 0 0 0 0 0 0 0 0 0 0 0 0 0 0 0 0 0 0 0 0 0 0 0 0 -0 0 0 0 0 0 0 0 0 0 0 0 0 0 0 0 0 0 0 0 0 0 0 0 0 0 0 0 0 0 0 0 0 0 0 0 0 0 0 0 0 0 0 0 0 0 0 0 -0 0 0 0 0 0 0 0 0 0 0 0 0 0 0 0 0 0 0 0 0 0 0 0 0 0 0 0 0 0 0 0 0 0 0 0 0 0 0 0 0 0 0 0 0 0 0 0 0 0 0 0 0 0 0 0 0 0 0 0 0 0 0 0 0 0 0 0 0 0 0 0 0 0 0 0 0 0 0 0 0 0 0 0 0 0 0 0 0 0 0 0 
</DataArray>
<DataArray Name="Warping_Z" format="ascii" type="Float64">
0 0 0 0 0 0 0 0 0 0 0 0 0 0 0 0 0 0 0 0 0 0 0 0 0 0 0 0 0 0 0 0 0 0 0 0 0 0 0 0 0 0 0 0 0 0 0 0 0 0 0 0 0 0 0 0 0 0 0 0 0 0 0 0 0 0 0 0 0 0 0 0 0 0 0 0 0 0 0 0 0 0 0 0 0 0 0 0 0 0 0 0 0 0 0 0 0 0 0 0 0 0 0 0 0 0 0 0 0 0 0 0 0 0 0 0 0 0 0 0 0 0 0 0 0 0 0 0 0 0 0 0 0 0 0 0 0 0 0 0 0 0 0 0 0 0 0 0 0 0 0 0 0 0 0 0 0 0 0 0 0 0 0 0 0 0 0 0 0 0 0 0 0 0 0 0 0 0 0 0 0 0 0 0 0 0 0 0 0 0 0 0 0 0 0 0 0 0 0 0 0 0 0 0 0 0 0 0 0 0 0 0 0 0 0 0 0 0 0 0 0 0 0 0 0 0 0 0 0 0 0 0 0 0 0 0 0 0 0 0 0 0 0 0 0 0 0 0 0 0 0 0 0 0 0 0 0 0 0 0 0 0 0 0 0 0 0 0 0 0 0 0 0 0 0 0 0 0 0 0 0 0 0 0 0 0 0 0 0 0 0 0 0 0 0 0 0 0 0 0 0 0 0 0 0 0 0 0 0 0 0 0 0 0 0 0 0 0 0 0 0 0 0 0 0 0 0 0 0 0 0 0 0 0 0 0 0 0 0 0 0 0 0 0 0 0 0 0 0 0 0 0 0 0 0 0 0 0 0 0 0 0 0 0 0 0 0 0 0 0 0 0 0 0 0 0 0 0 0 0 0 0 0 0 
</DataArray>
</PointData>
<CellData>
<DataArray Name="MaterialId" format="ascii" type="Float64">
1 1 1 1 1 1 1 1 1 1 1 1 1 1 1 1 1 1 1 1 1 1 1 1 1 1 1 1 1 1 1 1 1 1 1 1 1 1 1 1 1 1 1 1 1 1 1 1 1 1 1 1 1 1 1 1 1 1 1 1 1 1 1 1 1 1 1 1 1 1 1 1 1 1 1 1 1 1 1 1 1 1 1 1 1 1 1 1 1 1 1 1 1 1 1 1 1 1 1 1 1 1 1 1 1 1 1 1 1 1 1 1 1 1 1 1 1 1 1 1 1 1 1 1 1 1 1 1 1 1 1 1 1 1 1 1 1 1 1 1 1 1 1 1 2 2 2 2 2 2 2 2 2 2 2 2 2 2 2 2 2 2 2 2 2 2 2 2 2 2 2 2 2 2 2 2 2 2 2 2 2 2 2 2 2 2 2 2 2 2 2 2 2 2 2 2 2 2 2 2 2 2 2 2 2 2 2 2 2 2 2 2 2 2 2 2 2 2 2 2 2 2 2 2 2 2 2 2 2 2 2 2 2 2 2 2 2 2 2 2 2 2 2 2 2 2 2 2 2 2 2 2 2 2 2 2 2 2 2 2 2 2 2 2 2 2 2 2 2 2 2 2 2 2 2 2 2 2 2 2 2 2 2 2 2 2 2 2 
</DataArray>
<DataArray Name="FiberAngle" format="ascii" type="Float64">
0 0 0 0 0 0 0 0 0 0 0 0 0 0 0 0 0 0 0 0 0 0 0 0 0 0 0 0 0 0 0 0 0 0 0 0 0 0 0 0 0 0 0 0 0 0 0 0 0 0 0 0 0 0 0 0 0 0 0 0 0 0 0 0 0 0 0 0 0 0 0 0 0 0 0 0 0 0 0 0 0 0 0 0 0 0 0 0 0 0 0 0 0 0 0 0 0 0 0 0 0 0 0 0 0 0 0 0 0 0 0 0 0 0 0 0 0 0 0 0 0 0 0 0 0 0 0 0 0 0 0 0 0 0 0 0 0 0 0 0 0 0 0 0 0 0 0 0 0 0 0 0 0 0 0 0 0 0 0 0 0 0 0 0 0 0 0 0 0 0 0 0 0 0 0 0 0 0 0 0 0 0 0 0 0 0 0 0 0 0 0 0 0 0 0 0 0 0 0 0 0 0 0 0 0 0 0 0 0 0 0 0 0 0 0 0 0 0 0 0 0 0 0 0 0 0 0 0 0 0 0 0 0 0 0 0 0 0 0 0 0 0 0 0 0 0 0 0 0 0 0 0 0 0 0 0 0 0 0 0 0 0 0 0 0 0 0 0 0 0 0 0 0 0 0 0 0 0 0 0 0 0 0 0 0 0 0 0 
</DataArray>
<DataArray Name="Strain_11" format="ascii" type="Float64">
0 0 0 0 0 0 0 0 0 0 0 0 0 0 0 0 0 0 0 0 0 0 0 0 0 0 0 0 0 0 0 0 0 0 0 0 0 0 0 0 0 0 0 0 0 0 0 0 0 0 0 0 0 0 0 0 0 0 0 0 0 0 0 0 0 0 0 0 0 0 0 0 0 0 0 0 0 0 0 0 0 0 0 0 0 0 0 0 0 0 0 0 0 0 0 0 0 0 0 0 0 0 0 0 0 0 0 0 0 0 0 0 0 0 0 0 0 0 0 0 0 0 0 0 0 0 0 0 0 0 0 0 0 0 0 0 0 0 0 0 0 0 0 0 0 0 0 0 0 0 0 0 0 0 0 0 0 0 0 0 0 0 0 0 0 0 0 0 0 0 0 0 0 0 0 0 0 0 0 0 0 0 0 0 0 0 0 0 0 0 0 0 0 0 0 0 0 0 0 0 0 0 0 0 0 0 0 0 0 0 0 0 0 0 0 0 0 0 0 0 0 0 0 0 0 0 0 0 0 0 0 0 0 0 0 0 0 0 0 0 0 0 0 0 0 0 0 0 0 0 0 0 0 0 0 0 0 0 0 0 0 0 0 0 0 0 0 0 0 0 0 0 0 0 0 0 0 0 0 0 0 0 0 0 0 0 0 0 
</DataArray>
<DataArray Name="Strain_22" format="ascii" type="Float64">
0 0 0 0 0 0 0 0 0 0 0 0 0 0 0 0 0 0 0 0 0 0 0 0 0 0 0 0 0 0 0 0 0 0 0 0 0 0 0 0 0 0 0 0 0 0 0 0 0 0 0 0 0 0 0 0 0 0 0 0 0 0 0 0 0 0 0 0 0 0 0 0 0 0 0 0 0 0 0 0 0 0 0 0 0 0 0 0 0 0 0 0 0 0 0 0 0 0 0 0 0 0 0 0 0 0 0 0 0 0 0 0 0 0 0 0 0 0 0 0 0 0 0 0 0 0 0 0 0 0 0 0 0 0 0 0 0 0 0 0 0 0 0 0 0 0 0 0 0 0 0 0 0 0 0 0 0 0 0 0 0 0 0 0 0 0 0 0 0 0 0 0 0 0 0 0 0 0 0 0 0 0 0 0 0 0 0 0 0 0 0 0 0 0 0 0 0 0 0 0 0 0 0 0 0 0 0 0 0 0 0 0 0 0 0 0 0 0 0 0 0 0 0 0 0 0 0 0 0 0 0 0 0 0 0 0 0 0 0 0 0 0 0 0 0 0 0 0 0 0 0 0 0 0 0 0 0 0 0 0 0 0 0 0 0 0 0 0 0 0 0 0 0 0 0 0 0 0 0 0 0 0 0 0 0 0 0 0 
</DataArray>
<DataArray Name="Strain_12" format="ascii" type="Float64">
0 0 0 0 0 0 0 0 0 0 0 0 0 0 0 0 0 0 0 0 0 0 0 0 0 0 0 0 0 0 0 0 0 0 0 0 0 0 0 0 0 0 0 0 0 0 0 0 0 0 0 0 0 0 0 0 0 0 0 0 0 0 0 0 0 0 0 0 0 0 0 0 0 0 0 0 0 0 0 0 0 0 0 0 0 0 0 0 0 0 0 0 0 0 0 0 0 0 0 0 0 0 0 0 0 0 0 0 0 0 0 0 0 0 0 0 0 0 0 0 0 0 0 0 0 0 0 0 0 0 0 0 0 0 0 0 0 0 0 0 0 0 0 0 0 0 0 0 0 0 0 0 0 0 0 0 0 0 0 0 0 0 0 0 0 0 0 0 0 0 0 0 0 0 0 0 0 0 0 0 0 0 0 0 0 0 0 0 0 0 0 0 0 0 0 0 0 0 0 0 0 0 0 0 0 0 0 0 0 0 0 0 0 0 0 0 0 0 0 0 0 0 0 0 0 0 0 0 0 0 0 0 0 0 0 0 0 0 0 0 0 0 0 0 0 0 0 0 0 0 0 0 0 0 0 0 0 0 0 0 0 0 0 0 0 0 0 0 0 0 0 0 0 0 0 0 0 0 0 0 0 0 0 0 0 0 0 0 
</DataArray>
<DataArray Name="Strain_13" format="ascii" type="Float64">
189.817 194.002 192.672 190.204 186.896 182.786 177.896 172.244 165.855 158.753 150.971 142.546 188.347 187.513 185.925 183.525 180.333 176.367 171.647 166.195 160.03 153.177 145.669 137.54 187.034 181.483 179.636 177.301 174.214 170.383 165.822 160.554 154.602 147.979 140.724 132.873 133.509 123.901 113.761 103.135 92.0662 80.6025 68.7969 56.6941 44.3497 31.8137 19.1434 6.3898 128.821 119.549 109.766 99.5121 88.8327 77.7734 66.3782 54.702 42.7925 30.698 18.4705 6.16535 124.452 115.494 106.038 96.1354 85.8206 75.1332 64.126 52.844 41.341 29.6597 17.8431 5.95533 -6.3898 -19.1434 -31.8137 -44.3497 -56.6941 -68.7969 -80.6025 -92.0662 -103.135 -113.761 -123.901 -133.509 -6.16535 -18.4705 -30.698 -42.7925 -54.702 -66.3782 -77.7734 -88.8327 -99.5121 -109.766 -119.549 -128.821 -5.95533 -17.8431 -29.6597 -41.341 -52.844 -64.126 -75.1332 -85.8206 -96.1354 -106.038 -115.494 -124.452 -142.546 -150.971 -158.753 -165.855 -172.244 -177.896 -182.786 -186.896 -190.204 -192.672 -194.002 -189.817 -137.54 -145.669 -153.177 -160.03 -166.195 -171.647 -176.367 -180.333 -183.525 -185.925 -187.513 -188.347 -132.873 -140.724 -147.979 -154.602 -160.554 -165.822 -170.383 -174.214 -177.301 -179.636 -181.483 -187.034 189.995 194.173 192.862 190.368 187.067 182.97 178.076 172.402 165.982 158.916 151.136 142.687 188.528 187.703 186.114 183.696 180.507 176.554 171.833 166.359 160.176 153.339 145.836 137.684 187.217 181.692 179.838 177.463 174.391 170.575 166.023 160.727 154.743 148.151 140.904 133.019 133.637 124.019 113.851 103.218 92.1705 80.6877 68.8633 56.7407 44.3889 31.8353 19.1509 6.39876 128.946 119.667 109.875 99.6075 88.9231 77.8587 66.453 54.7598 42.8279 30.7165 18.485 6.1735 124.567 115.613 106.171 96.236 85.8993 75.2196 64.2107 52.9153 41.3713 29.6688 17.8652 5.97019 -6.39876 -19.1509 -31.8353 -44.3889 -56.7407 -68.8633 -80.6877 -92.1705 -103.218 -113.851 -124.019 -133.637 -6.1735 -18.485 -30.7165 -42.8279 -54.7598 -66.453 -77.8587 -88.9231 -99.6075 -109.875 -119.667 -128.946 -5.97019 -17.8652 -29.6688 -41.3713 -52.9153 -64.2107 -75.2196 -85.8993 -96.236 -106.171 -115.613 -124.567 -142.687 -151.136 -158.916 -165.982 -172.402 -178.076 -182.97 -187.067 -190.368 -192.862 -194.173 -189.995 -137.684 -145.836 -153.339 -160.176 -166.359 -171.833 -176.554 -180.507 -183.696 -186.114 -187.703 -188.528 -133.019 -140.904 -148.151 -154.743 -160.727 -166.023 -170.575 -174.391 -177.463 -179.838 -181.692 -187.217 
</DataArray>
<DataArray Name="Strain_23" format="ascii" type="Float64">
-229.358 -220.397 -207.899 -195.384 -183.039 -170.936 -159.131 -147.667 -136.598 -125.972 -115.832 -106.224 -226.417 -220.741 -209.015 -196.936 -185.031 -173.355 -161.96 -150.9 -140.221 -129.967 -120.184 -110.912 -229.895 -221.708 -210.043 -198.394 -186.888 -175.607 -164.6 -153.912 -143.598 -133.695 -124.239 -115.281 -97.1867 -88.7618 -80.9804 -73.8776 -67.4894 -61.8375 -56.9468 -52.8365 -49.5281 -47.0367 -45.3675 -44.5317 -102.193 -94.0642 -86.5561 -79.7031 -73.5381 -68.0861 -63.3659 -59.4 -56.2077 -53.8044 -52.1957 -51.3876 -106.86 -99.0089 -91.7542 -85.1315 -79.1787 -73.9114 -69.3504 -65.5194 -62.434 -60.1147 -58.5606 -57.7785 -44.5317 -45.3675 -47.0367 -49.5281 -52.8365 -56.9468 -61.8375 -67.4894 -73.8776 -80.9804 -88.7618 -97.1867 -51.3876 -52.1957 -53.8044 -56.2077 -59.4 -63.3659 -68.0861 -73.5381 -79.7031 -86.5561 -94.0642 -102.193 -57.7785 -58.5606 -60.1147 -62.434 -65.5194 -69.3504 -73.9114 -79.1787 -85.1315 -91.7542 -99.0089 -106.86 -106.224 -115.832 -125.972 -136.598 -147.667 -159.131 -170.936 -183.039 -195.384 -207.899 -220.397 -229.358 -110.912 -120.184 -129.967 -140.221 -150.9 -161.96 -173.355 -185.031 -196.936 -209.015 -220.741 -226.417 -115.281 -124.239 -133.695 -143.598 -153.912 -164.6 -175.607 -186.888 -198.394 -210.043 -221.708 -229.895 -229.349 -220.39 -207.878 -195.345 -182.992 -170.87 -159.045 -147.563 -136.515 -125.882 -115.714 -106.096 -226.408 -220.727 -208.997 -196.901 -184.974 -173.28 -161.874 -150.81 -140.126 -129.858 -120.066 -110.787 -229.88 -221.686 -210.034 -198.363 -186.817 -175.522 -164.513 -153.834 -143.497 -133.562 -124.12 -115.166 -97.0464 -88.5975 -80.8171 -73.7506 -67.3312 -61.6573 -56.7628 -52.6659 -49.3632 -46.8463 -45.1968 -44.3539 -102.049 -93.8972 -86.3936 -79.5573 -73.3743 -67.8997 -63.1793 -59.2256 -56.0364 -53.6153 -52.0055 -51.2057 -106.714 -98.8288 -91.5822 -84.9901 -79.0061 -73.7104 -69.1582 -65.3416 -62.272 -59.9127 -58.3516 -57.5956 -44.3539 -45.1968 -46.8463 -49.3632 -52.6659 -56.7628 -61.6573 -67.3312 -73.7506 -80.8171 -88.5975 -97.0464 -51.2057 -52.0055 -53.6153 -56.0364 -59.2256 -63.1793 -67.8997 -73.3743 -79.5573 -86.3936 -93.8972 -102.049 -57.5956 -58.3516 -59.9127 -62.272 -65.3416 -69.1582 -73.7104 -79.0061 -84.9901 -91.5822 -98.8288 -106.714 -106.096 -115.714 -125.882 -136.515 -147.563 -159.045 -170.87 -182.992 -195.345 -207.878 -220.39 -229.349 -110.787 -120.066 -129.858 -140.126 -150.81 -161.874 -173.28 -184.974 -196.901 -208.997 -220.727 -226.408 -115.166 -124.12 -133.562 -143.497 -153.834 -164.513 -175.522 -186.817 -198.363 -210.034 -221.686 -229.88 
</DataArray>
<DataArray Name="Strain_33" format="ascii" type="Float64">
0 0 0 0 0 0 0 0 0 0 0 0 0 0 0 0 0 0 0 0 0 0 0 0 0 0 0 0 0 0 0 0 0 0 0 0 0 0 0 0 0 0 0 0 0 0 0 0 0 0 0 0 0 0 0 0 0 0 0 0 0 0 0 0 0 0 0 0 0 0 0 0 0 0 0 0 0 0 0 0 0 0 0 0 0 0 0 0 0 0 0 0 0 0 0 0 0 0 0 0 0 0 0 0 0 0 0 0 0 0 0 0 0 0 0 0 0 0 0 0 0 0 0 0 0 0 0 0 0 0 0 0 0 0 0 0 0 0 0 0 0 0 0 0 0 0 0 0 0 0 0 0 0 0 0 0 0 0 0 0 0 0 0 0 0 0 0 0 0 0 0 0 0 0 0 0 0 0 0 0 0 0 0 0 0 0 0 0 0 0 0 0 0 0 0 0 0 0 0 0 0 0 0 0 0 0 0 0 0 0 0 0 0 0 0 0 0 0 0 0 0 0 0 0 0 0 0 0 0 0 0 0 0 0 0 0 0 0 0 0 0 0 0 0 0 0 0 0 0 0 0 0 0 0 0 0 0 0 0 0 0 0 0 0 0 0 0 0 0 0 0 0 0 0 0 0 0 0 0 0 0 0 0 0 0 0 0 0 
</DataArray>
<DataArray Name="Stress_11" format="ascii" type="Float64">
0 0 0 0 0 0 0 0 0 0 0 0 0 0 0 0 0 0 0 0 0 0 0 0 0 0 0 0 0 0 0 0 0 0 0 0 0 0 0 0 0 0 0 0 0 0 0 0 0 0 0 0 0 0 0 0 0 0 0 0 0 0 0 0 0 0 0 0 0 0 0 0 0 0 0 0 0 0 0 0 0 0 0 0 0 0 0 0 0 0 0 0 0 0 0 0 0 0 0 0 0 0 0 0 0 0 0 0 0 0 0 0 0 0 0 0 0 0 0 0 0 0 0 0 0 0 0 0 0 0 0 0 0 0 0 0 0 0 0 0 0 0 0 0 0 0 0 0 0 0 0 0 0 0 0 0 0 0 0 0 0 0 0 0 0 0 0 0 0 0 0 0 0 0 0 0 0 0 0 0 0 0 0 0 0 0 0 0 0 0 0 0 0 0 0 0 0 0 0 0 0 0 0 0 0 0 0 0 0 0 0 0 0 0 0 0 0 0 0 0 0 0 0 0 0 0 0 0 0 0 0 0 0 0 0 0 0 0 0 0 0 0 0 0 0 0 0 0 0 0 0 0 0 0 0 0 0 0 0 0 0 0 0 0 0 0 0 0 0 0 0 0 0 0 0 0 0 0 0 0 0 0 0 0 0 0 0 0 
</DataArray>
<DataArray Name="Stress_22" format="ascii" type="Float64">
0 0 0 0 0 0 0 0 0 0 0 0 0 0 0 0 0 0 0 0 0 0 0 0 0 0 0 0 0 0 0 0 0 0 0 0 0 0 0 0 0 0 0 0 0 0 0 0 0 0 0 0 0 0 0 0 0 0 0 0 0 0 0 0 0 0 0 0 0 0 0 0 0 0 0 0 0 0 0 0 0 0 0 0 0 0 0 0 0 0 0 0 0 0 0 0 0 0 0 0 0 0 0 0 0 0 0 0 0 0 0 0 0 0 0 0 0 0 0 0 0 0 0 0 0 0 0 0 0 0 0 0 0 0 0 0 0 0 0 0 0 0 0 0 0 0 0 0 0 0 0 0 0 0 0 0 0 0 0 0 0 0 0 0 0 0 0 0 0 0 0 0 0 0 0 0 0 0 0 0 0 0 0 0 0 0 0 0 0 0 0 0 0 0 0 0 0 0 0 0 0 0 0 0 0 0 0 0 0 0 0 0 0 0 0 0 0 0 0 0 0 0 0 0 0 0 0 0 0 0 0 0 0 0 0 0 0 0 0 0 0 0 0 0 0 0 0 0 0 0 0 0 0 0 0 0 0 0 0 0 0 0 0 0 0 0 0 0 0 0 0 0 0 0 0 0 0 0 0 0 0 0 0 0 0 0 0 0 
</DataArray>
<DataArray Name="Stress_12" format="ascii" type="Float64">
0 0 0 0 0 0 0 0 0 0 0 0 0 0 0 0 0 0 0 0 0 0 0 0 0 0 0 0 0 0 0 0 0 0 0 0 0 0 0 0 0 0 0 0 0 0 0 0 0 0 0 0 0 0 0 0 0 0 0 0 0 0 0 0 0 0 0 0 0 0 0 0 0 0 0 0 0 0 0 0 0 0 0 0 0 0 0 0 0 0 0 0 0 0 0 0 0 0 0 0 0 0 0 0 0 0 0 0 0 0 0 0 0 0 0 0 0 0 0 0 0 0 0 0 0 0 0 0 0 0 0 0 0 0 0 0 0 0 0 0 0 0 0 0 0 0 0 0 0 0 0 0 0 0 0 0 0 0 0 0 0 0 0 0 0 0 0 0 0 0 0 0 0 0 0 0 0 0 0 0 0 0 0 0 0 0 0 0 0 0 0 0 0 0 0 0 0 0 0 0 0 0 0 0 0 0 0 0 0 0 0 0 0 0 0 0 0 0 0 0 0 0 0 0 0 0 0 0 0 0 0 0 0 0 0 0 0 0 0 0 0 0 0 0 0 0 0 0 0 0 0 0 0 0 0 0 0 0 0 0 0 0 0 0 0 0 0 0 0 0 0 0 0 0 0 0 0 0 0 0 0 0 0 0 0 0 0 0 
</DataArray>
<DataArray Name="Stress_13" format="ascii" type="Float64">
7909.11 8083.49 8028.06 7925.21 7787.41 7616.15 7412.37 7176.87 6910.7 6614.74 6290.52 5939.48 7847.83 7813.11 7746.94 7646.92 7513.94 7348.69 7152.01 6924.84 6667.97 6382.42 6069.58 5730.86 7793.14 7561.84 7484.89 7387.58 7258.96 7099.33 6909.29 6689.81 6441.78 6165.83 5863.55 5536.41 5562.91 5162.57 4740.08 4297.34 3836.12 3358.46 2866.56 2362.27 1847.92 1325.58 797.646 266.244 5367.59 4981.25 4573.6 4146.37 3701.39 3240.59 2765.78 2279.27 1783.04 1279.09 769.61 256.891 5185.53 4812.27 4418.29 4005.67 3575.89 3130.57 2671.94 2201.85 1722.55 1235.83 743.47 248.141 -266.244 -797.646 -1325.58 -1847.92 -2362.27 -2866.56 -3358.46 -3836.12 -4297.34 -4740.08 -5162.57 -5562.91 -256.891 -769.61 -1279.09 -1783.04 -2279.27 -2765.78 -3240.59 -3701.39 -4146.37 -4573.6 -4981.25 -5367.59 -248.141 -743.47 -1235.83 -1722.55 -2201.85 -2671.94 -3130.57 -3575.89 -4005.67 -4418.29 -4812.27 -5185.53 -5939.48 -6290.52 -6614.74 -6910.7 -7176.87 -7412.37 -7616.15 -7787.41 -7925.21 -8028.06 -8083.49 -7909.11 -5730.86 -6069.58 -6382.42 -6667.97 -6924.84 -7152.01 -7348.69 -7513.94 -7646.92 -7746.94 -7813.11 -7847.83 -5536.41 -5863.55 -6165.83 -6441.78 -6689.81 -6909.29 -7099.33 -7258.96 -7387.58 -7484.89 -7561.84 -7793.14 791.652 809.06 803.599 793.208 779.452 762.382 741.988 718.346 691.599 662.155 629.736 594.532 785.541 782.103 775.481 765.406 752.12 735.646 715.978 693.167 667.404 638.919 607.654 573.689 780.076 757.055 749.33 739.433 726.636 710.734 691.766 669.701 644.767 617.3 587.106 554.249 556.825 516.748 474.384 430.079 384.047 336.201 286.933 236.422 184.955 132.648 79.796 26.6617 537.279 498.617 457.816 415.034 370.516 324.414 276.89 228.168 178.451 127.986 77.0213 25.7231 519.035 481.725 442.381 400.987 357.917 313.418 267.547 220.482 172.382 123.621 74.439 24.876 -26.6617 -79.796 -132.648 -184.955 -236.422 -286.933 -336.201 -384.047 -430.079 -474.384 -516.748 -556.825 -25.7231 -77.0213 -127.986 -178.451 -228.168 -276.89 -324.414 -370.516 -415.034 -457.816 -498.617 -537.279 -24.876 -74.439 -123.621 -172.382 -220.482 -267.547 -313.418 -357.917 -400.987 -442.381 -481.725 -519.035 -594.532 -629.736 -662.155 -691.599 -718.346 -741.988 -762.382 -779.452 -793.208 -803.599 -809.06 -791.652 -573.689 -607.654 -638.919 -667.404 -693.167 -715.978 -735.646 -752.12 -765.406 -775.481 -782.103 -785.541 -554.249 -587.106 -617.3 -644.767 -669.701 -691.766 -710.734 -726.636 -739.433 -749.33 -757.055 -780.076 
</DataArray>
<DataArray Name="Stress_23" format="ascii" type="Float64">
-9556.66 -9183.3 -8662.54 -8141.07 -7626.67 -7122.4 -6630.49 -6152.83 -5691.62 -5248.87 -4826.39 -4426.04 -9434.1 -9197.62 -8709.03 -8205.75 -7709.7 -7223.17 -6748.37 -6287.56 -5842.58 -5415.35 -5007.71 -4621.37 -9579.02 -9237.93 -8751.85 -8266.46 -7787.08 -7317.02 -6858.38 -6413.07 -5983.28 -5570.67 -5176.68 -4803.43 -4049.48 -3698.44 -3374.21 -3078.26 -2812.08 -2576.58 -2372.8 -2201.54 -2063.69 -1959.88 -1890.33 -1855.5 -4258.09 -3919.37 -3606.54 -3320.99 -3064.11 -2836.94 -2640.27 -2475.02 -2342.01 -2241.87 -2174.84 -2141.17 -4452.55 -4125.4 -3823.12 -3547.17 -3299.14 -3079.67 -2889.62 -2730 -2601.44 -2504.8 -2440.04 -2407.46 -1855.5 -1890.33 -1959.88 -2063.69 -2201.54 -2372.8 -2576.58 -2812.08 -3078.26 -3374.21 -3698.44 -4049.48 -2141.17 -2174.84 -2241.87 -2342.01 -2475.02 -2640.27 -2836.94 -3064.11 -3320.99 -3606.54 -3919.37 -4258.09 -2407.46 -2440.04 -2504.8 -2601.44 -2730 -2889.62 -3079.67 -3299.14 -3547.17 -3823.12 -4125.4 -4452.55 -4426.04 -4826.39 -5248.87 -5691.62 -6152.83 -6630.49 -7122.4 -7626.67 -8141.07 -8662.54 -9183.3 -9556.66 -4621.37 -5007.71 -5415.35 -5842.58 -6287.56 -6748.37 -7223.17 -7709.7 -8205.75 -8709.03 -9197.62 -9434.1 -4803.43 -5176.68 -5570.67 -5983.28 -6413.07 -6858.38 -7317.02 -7787.08 -8266.46 -8751.85 -9237.93 -9579.02 -955.629 -918.299 -866.164 -813.944 -762.472 -711.963 -662.694 -614.849 -568.817 -524.511 -482.147 -442.07 -943.376 -919.702 -870.826 -820.428 -770.729 -722.005 -674.482 -628.38 -583.861 -541.08 -500.278 -461.616 -957.841 -923.701 -875.147 -826.52 -778.411 -731.349 -685.478 -640.979 -597.909 -556.514 -517.17 -479.86 -404.363 -369.159 -336.741 -307.297 -280.549 -256.907 -236.514 -219.443 -205.682 -195.194 -188.321 -184.809 -425.207 -391.241 -359.976 -331.491 -305.729 -282.918 -263.249 -246.775 -233.487 -223.399 -216.691 -213.359 -444.646 -411.79 -381.595 -354.128 -329.195 -307.129 -288.162 -272.259 -259.469 -249.638 -243.133 -239.984 -184.809 -188.321 -195.194 -205.682 -219.443 -236.514 -256.907 -280.549 -307.297 -336.741 -369.159 -404.363 -213.359 -216.691 -223.399 -233.487 -246.775 -263.249 -282.918 -305.729 -331.491 -359.976 -391.241 -425.207 -239.984 -243.133 -249.638 -259.469 -272.259 -288.162 -307.129 -329.195 -354.128 -381.595 -411.79 -444.646 -442.07 -482.147 -524.511 -568.817 -614.849 -662.694 -711.963 -762.472 -813.944 -866.164 -918.299 -955.629 -461.616 -500.278 -541.08 -583.861 -628.38 -674.482 -722.005 -770.729 -820.428 -870.826 -919.702 -943.376 -479.86 -517.17 -556.514 -597.909 -640.979 -685.478 -731.349 -778.411 -826.52 -875.147 -923.701 -957.841 
</DataArray>
<DataArray Name="Stress_33" format="ascii" type="Float64">
0 0 0 0 0 0 0 0 0 0 0 0 0 0 0 0 0 0 0 0 0 0 0 0 0 0 0 0 0 0 0 0 0 0 0 0 0 0 0 0 0 0 0 0 0 0 0 0 0 0 0 0 0 0 0 0 0 0 0 0 0 0 0 0 0 0 0 0 0 0 0 0 0 0 0 0 0 0 0 0 0 0 0 0 0 0 0 0 0 0 0 0 0 0 0 0 0 0 0 0 0 0 0 0 0 0 0 0 0 0 0 0 0 0 0 0 0 0 0 0 0 0 0 0 0 0 0 0 0 0 0 0 0 0 0 0 0 0 0 0 0 0 0 0 0 0 0 0 0 0 0 0 0 0 0 0 0 0 0 0 0 0 0 0 0 0 0 0 0 0 0 0 0 0 0 0 0 0 0 0 0 0 0 0 0 0 0 0 0 0 0 0 0 0 0 0 0 0 0 0 0 0 0 0 0 0 0 0 0 0 0 0 0 0 0 0 0 0 0 0 0 0 0 0 0 0 0 0 0 0 0 0 0 0 0 0 0 0 0 0 0 0 0 0 0 0 0 0 0 0 0 0 0 0 0 0 0 0 0 0 0 0 0 0 0 0 0 0 0 0 0 0 0 0 0 0 0 0 0 0 0 0 0 0 0 0 0 0 
</DataArray>
</CellData>
<Points>
<DataArray NumberOfComponents="3" format="ascii" type="Float64">
0 0.09 0 -0.06364 0.06364 0 -0.005886 0.089807 0 -0.011747 0.08923 0 -0.017558 0.088271 0 -0.023294 0.086933 0 -0.02893 0.085224 0 -0.034442 0.083149 0 -0.039806 0.080719 0 -0.045 0.077942 0 -0.050001 0.074832 0 -0.054789 0.071402 0 -0.059341 0.067666 0 -0.065997 0.065997 0 0 0.093333 0 -0.006104 0.093133 0 -0.012182 0.092535 0 -0.018208 0.09154 0 -0.024156 0.090153 0 -0.030001 0.08838 0 -0.035717 0.086229 0 -0.04128 0.083708 0 -0.046667 0.080829 0 -0.051853 0.077604 0 -0.056818 0.074046 0 -0.061539 0.070172 0 -0.068354 0.068354 0 0 0.096667 0 -0.006322 0.09646 0 -0.012618 0.09584 0 -0.018859 0.094809 0 -0.025019 0.093373 0 -0.031072 0.091537 0 -0.036993 0.089308 0 -0.042755 0.086698 0 -0.048333 0.083716 0 -0.053705 0.080375 0 -0.058847 0.076691 0 -0.063737 0.072678 0 -0.070711 0.070711 0 0 0.1 0 -0.00654 0.099786 0 -0.013053 0.099144 0 -0.019509 0.098079 0 -0.025882 0.096593 0 -0.032144 0.094693 0 -0.038268 0.092388 0 -0.044229 0.089687 0 -0.05 0.086603 0 -0.055557 0.083147 0 -0.060876 0.079335 0 -0.065935 0.075184 0 -0.09 0 0 -0.067666 0.059341 0 -0.071402 0.054789 0 -0.074832 0.050001 0 -0.077942 0.045 0 -0.080719 0.039806 0 -0.083149 0.034442 0 -0.085224 0.02893 0 -0.086933 0.023294 0 -0.088271 0.017558 0 -0.08923 0.011747 0 -0.089807 0.005886 0 -0.093333 0 0 -0.070172 0.061539 0 -0.074046 0.056818 0 -0.077604 0.051853 0 -0.080829 0.046667 0 -0.083708 0.04128 0 -0.086229 0.035717 0 -0.08838 0.030001 0 -0.090153 0.024156 0 -0.09154 0.018208 0 -0.092535 0.012182 0 -0.093133 0.006104 0 -0.096667 0 0 -0.072678 0.063737 0 -0.076691 0.058847 0 -0.080375 0.053705 0 -0.083716 0.048333 0 -0.086698 0.042755 0 -0.089308 0.036993 0 -0.091537 0.031072 0 -0.093373 0.025019 0 -0.094809 0.018859 0 -0.09584 0.012618 0 -0.09646 0.006322 0 -0.1 0 0 -0.075184 0.065935 0 -0.079335 0.060876 0 -0.083147 0.055557 0 -0.086603 0.05 0 -0.089687 0.044229 0 -0.092388 0.038268 0 -0.094693 0.032144 0 -0.096593 0.025882 0 -0.098079 0.019509 0 -0.099144 0.013053 0 -0.099786 0.00654 0 -0.06364 -0.06364 0 -0.089807 -0.005886 0 -0.08923 -0.011747 0 -0.088271 -0.017558 0 -0.086933 -0.023294 0 -0.085224 -0.02893 0 -0.083149 -0.034442 0 -0.080719 -0.039806 0 -0.077942 -0.045 0 -0.074832 -0.050001 0 -0.071402 -0.054789 0 -0.067666 -0.059341 0 -0.065997 -0.065997 0 -0.093133 -0.006104 0 -0.092535 -0.012182 0 -0.09154 -0.018208 0 -0.090153 -0.024156 0 -0.08838 -0.030001 0 -0.086229 -0.035717 0 -0.083708 -0.04128 0 -0.080829 -0.046667 0 -0.077604 -0.051853 0 -0.074046 -0.056818 0 -0.070172 -0.061539 0 -0.068354 -0.068354 0 -0.09646 -0.006322 0 -0.09584 -0.012618 0 -0.094809 -0.018859 0 -0.093373 -0.025019 0 -0.091537 -0.031072 0 -0.089308 -0.036993 0 -0.086698 -0.042755 0 -0.083716 -0.048333 0 -0.080375 -0.053705 0 -0.076691 -0.058847 0 -0.072678 -0.063737 0 -0.070711 -0.070711 0 -0.099786 -0.00654 0 -0.099144 -0.013053 0 -0.098079 -0.019509 0 -0.096593 -0.025882 0 -0.094693 -0.032144 0 -0.092388 -0.038268 0 -0.089687 -0.044229 0 -0.086603 -0.05 0 -0.083147 -0.055557 0 -0.079335 -0.060876 0 -0.075184 -0.065935 0 0 -0.09 0 -0.059341 -0.067666 0 -0.054789 -0.071402 0 -0.050001 -0.074832 0 -0.045 -0.077942 0 -0.039806 -0.080719 0 -0.034442 -0.083149 0 -0.02893 -0.085224 0 -0.023294 -0.086933 0 -0.017558 -0.088271 0 -0.011747 -0.08923 0 -0.005886 -0.089807 0 0 -0.093333 0 -0.061539 -0.070172 0 -0.056818 -0.074046 0 -0.051853 -0.077604 0 -0.046667 -0.080829 0 -0.04128 -0.083708 0 -0.035717 -0.086229 0 -0.030001 -0.08838 0 -0.024156 -0.090153 0 -0.018208 -0.09154 0 -0.012182 -0.092535 0 -0.006104 -0.093133 0 0 -0.096667 0 -0.063737 -0.072678 0 -0.058847 -0.076691 0 -0.053705 -0.080375 0 -0.048333 -0.083716 0 -0.042755 -0.086698 0 -0.036993 -0.089308 0 -0.031072 -0.091537 0 -0.025019 -0.093373 0 -0.018859 -0.094809 0 -0.012618 -0.09584 0 -0.006322 -0.09646 0 0 -0.1 0 -0.065935 -0.075184 0 -0.060876 -0.079335 0 -0.055557 -0.083147 0 -0.05 -0.086603 0 -0.044229 -0.089687 0 -0.038268 -0.092388 0 -0.032144 -0.094693 0 -0.025882 -0.096593 0 -0.019509 -0.098079 0 -0.013053 -0.099144 0 -0.00654 -0.099786 0 0.06364 -0.06364 0 0.005886 -0.089807 0 0.011747 -0.08923 0 0.017558 -0.088271 0 0.023294 -0.086933 0 0.02893 -0.085224 0 0.034442 -0.083149 0 0.039806 -0.080719 0 0.045 -0.077942 0 0.050001 -0.074832 0 0.054789 -0.071402 0 0.059341 -0.067666 0 0.065997 -0.065997 0 0.006104 -0.093133 0 0.012182 -0.092535 0 0.018208 -0.09154 0 0.024156 -0.090153 0 0.030001 -0.08838 0 0.035717 -0.086229 0 0.04128 -0.083708 0 0.046667 -0.080829 0 0.051853 -0.077604 0 0.056818 -0.074046 0 0.061539 -0.070172 0 0.068354 -0.068354 0 0.006322 -0.09646 0 0.012618 -0.09584 0 0.018859 -0.094809 0 0.025019 -0.093373 0 0.031072 -0.091537 0 0.036993 -0.089308 0 0.042755 -0.086698 0 0.048333 -0.083716 0 0.053705 -0.080375 0 0.058847 -0.076691 0 0.063737 -0.072678 0 0.070711 -0.070711 0 0.00654 -0.099786 0 0.013053 -0.099144 0 0.019509 -0.098079 0 0.025882 -0.096593 0 0.032144 -0.094693 0 0.038268 -0.092388 0 0.044229 -0.089687 0 0.05 -0.086603 0 0.055557 -0.083147 0 0.060876 -0.079335 0 0.065935 -0.075184 0 0.09 0 0 0.067666 -0.059341 0 0.071402 -0.054789 0 0.074832 -0.050001 0 0.077942 -0.045 0 0.080719 -0.039806 0 0.083149 -0.034442 0 0.085224 -0.02893 0 0.086933 -0.023294 0 0.088271 -0.017558 0 0.08923 -0.011747 0 0.089807 -0.005886 0 0.093333 0 0 0.070172 -0.061539 0 0.074046 -0.056818 0 0.077604 -0.051853 0 0.080829 -0.046667 0 0.083708 -0.04128 0 0.086229 -0.035717 0 0.08838 -0.030001 0 0.090153 -0.024156 0 0.09154 -0.018208 0 0.092535 -0.012182 0 0.093133 -0.006104 0 0.096667 0 0 0.072678 -0.063737 0 0.076691 -0.058847 0 0.080375 -0.053705 0 0.083716 -0.048333 0 0.086698 -0.042755 0 0.089308 -0.036993 0 0.091537 -0.031072 0 0.093373 -0.025019 0 0.094809 -0.018859 0 0.09584 -0.012618 0 0.09646 -0.006322 0 0.1 0 0 0.075184 -0.065935 0 0.079335 -0.060876 0 0.083147 -0.055557 0 0.086603 -0.05 0 0.089687 -0.044229 0 0.092388 -0.038268 0 0.094693 -0.032144 0 0.096593 -0.025882 0 0.098079 -0.019509 0 0.099144 -0.013053 0 0.099786 -0.00654 0 0.06364 0.06364 0 0.089807 0.005886 0 0.08923 0.011747 0 0.088271 0.017558 0 0.086933 0.023294 0 0.085224 0.02893 0 0.083149 0.034442 0 0.080719 0.039806 0 0.077942 0.045 0 0.074832 0.050001 0 0.071402 0.054789 0 0.067666 0.059341 0 0.065997 0.065997 0 0.093133 0.006104 0 0.092535 0.012182 0 0.09154 0.018208 0 0.090153 0.024156 0 0.08838 0.030001 0 0.086229 0.035717 0 0.083708 0.04128 0 0.080829 0.046667 0 0.077604 0.051853 0 0.074046 0.056818 0 0.070172 0.061539 0 0.068354 0.068354 0 0.09646 0.006322 0 0.09584 0.012618 0 0.094809 0.018859 0 0.093373 0.025019 0 0.091537 0.031072 0 0.089308 0.036993 0 0.086698 0.042755 0 0.083716 0.048333 0 0.080375 0.053705 0 0.076691 0.058847 0 0.072678 0.063737 0 0.070711 0.070711 0 0.099786 0.00654 0 0.099144 0.013053 0 0.098079 0.019509 0 0.096593 0.025882 0 0.094693 0.032144 0 0.092388 0.038268 0 0.089687 0.044229 0 0.086603 0.05 0 0.083147 0.055557 0 0.079335 0.060876 0 0.075184 0.065935 0 0.059341 0.067666 0 0.054789 0.071402 0 0.050001 0.074832 0 0.045 0.077942 0 0.039806 0.080719 0 0.034442 0.083149 0 0.02893 0.085224 0 0.023294 0.086933 0 0.017558 0.088271 0 0.011747 0.08923 0 0.005886 0.089807 0 0.061539 0.070172 0 0.056818 0.074046 0 0.051853 0.077604 0 0.046667 0.080829 0 0.04128 0.083708 0 0.035717 0.086229 0 0.030001 0.08838 0 0.024156 0.090153 0 0.018208 0.09154 0 0.012182 0.092535 0 0.006104 0.093133 0 0.063737 0.072678 0 0.058847 0.076691 0 0.053705 0.080375 0 0.048333 0.083716 0 0.042755 0.086698 0 0.036993 0.089308 0 0.031072 0.091537 0 0.025019 0.093373 0 0.018859 0.094809 0 0.012618 0.09584 0 0.006322 0.09646 0 0.065935 0.075184 0 0.060876 0.079335 0 0.055557 0.083147 0 0.05 0.086603 0 0.044229 0.089687 0 0.038268 0.092388 0 0.032144 0.094693 0 0.025882 0.096593 0 0.019509 0.098079 0 0.013053 0.099144 0 0.00654 0.099786 0 
</DataArray>
</Points>
<Cells>
<DataArray Name="connectivity" format="ascii" type="Int64">