<?xml version="1.0"?>
<VTKFile byte_order="LittleEndian" type="UnstructuredGrid" version="0.1">
<UnstructuredGrid>
<Piece NumberOfCells="288" NumberOfPoints="384">
<PointData>
<DataArray Name="Warping_X" format="ascii" type="Float64">
-1.20165 -0.961312 -1.27755 -1.33322 -1.36882 -1.3848 -1.38202 -1.36156 -1.32484 -1.27346 -1.20933 -1.13446 -1.05103 -0.993762 -1.28876 -1.36698 -1.42349 -1.45839 -1.47227 -1.46602 -1.44086 -1.39827 -1.34007 -1.26825 -1.18499 -1.09269 -1.02621 -1.37925 -1.45973 -1.51695 -1.55101 -1.56259 -1.55265 -1.52247 -1.47374 -1.40833 -1.32841 -1.23639 -1.13476 -1.05864 -1.47309 -1.55576 -1.61352 -1.64667 -1.65575 -1.64185 -1.60641 -1.55116 -1.47821 -1.38983 -1.2886 -1.17726 -0.178942 -0.86764 -0.772395 -0.677864 -0.586335 -0.499924 -0.420655 -0.3503 -0.290474 -0.242492 -0.207451 -0.186112 -0.137509 -0.890748 -0.786202 -0.682601 -0.582416 -0.487922 -0.401292 -0.324474 -0.259166 -0.206822 -0.168594 -0.145327 -0.0927514 -0.913419 -0.799139 -0.686074 -0.576824 -0.473904 -0.379606 -0.296008 -0.224994 -0.168098 -0.12654 -0.101244 -0.0447024 -0.935647 -0.811219 -0.688266 -0.569587 -0.457868 -0.355559 -0.264938 -0.187959 -0.126301 -0.0813059 -0.0538985 -0.961312 -0.186112 -0.207451 -0.242492 -0.290474 -0.3503 -0.420655 -0.499924 -0.586335 -0.677864 -0.772395 -0.86764 -0.993762 -0.145327 -0.168594 -0.206822 -0.259166 -0.324474 -0.401292 -0.487922 -0.582416 -0.682601 -0.786202 -0.890748 -1.02621 -0.101244 -0.12654 -0.168098 -0.224994 -0.296008 -0.379606 -0.473904 -0.576824 -0.686074 -0.799139 -0.913419 -1.05864 -0.0538985 -0.0813059 -0.126301 -0.187959 -0.264938 -0.355559 -0.457868 -0.569587 -0.688266 -0.811219 -0.935647 -1.20165 -1.05103 -1.13446 -1.20933 -1.27346 -1.32484 -1.36156 -1.38202 -1.3848 -1.36882 -1.33322 -1.27755 -1.28876 -1.09269 -1.18499 -1.26825 -1.34007 -1.39827 -1.44086 -1.46602 -1.47227 -1.45839 -1.42349 -1.36698 -1.37925 -1.13476 -1.23639 -1.32841 -1.40833 -1.47374 -1.52247 -1.55265 -1.56259 -1.55101 -1.51695 -1.45973 -1.47309 -1.17726 -1.2886 -1.38983 -1.47821 -1.55116 -1.60641 -1.64185 -1.65575 -1.64667 -1.61352 -1.55576 0.957663 -1.10381 -0.986417 -0.850007 -0.695598 -0.524638 -0.338782 -0.140126 0.0691064 0.286295 0.508748 0.73351 0.988616 -1.18844 -1.06673 -0.924437 -0.762636 -0.582798 -0.386799 -0.176775 0.0447849 0.2751 0.511303 0.75019 1.01958 -1.27622 -1.15014 -1.00181 -0.832424 -0.643518 -0.437015 -0.215356 0.0188519 0.262721 0.513024 0.766469 1.05052 -1.36724 -1.23673 -1.08228 -0.905068 -0.7068 -0.489614 -0.255945 -0.00870514 0.249049 0.513901 0.782297 2.5869 1.17811 1.39179 1.59575 1.78707 1.96308 2.12113 2.25903 2.3747 2.46652 2.53306 2.57338 2.72563 1.22327 1.45085 1.66823 1.8722 2.05988 2.22853 2.37565 2.49913 2.59712 2.66817 2.7112 2.86759 1.26886 1.51079 1.74191 1.95894 2.15865 2.33814 2.49484 2.62632 2.73066 2.80636 2.85223 3.01271 1.31484 1.5715 1.81683 2.04725 2.25934 2.45006 2.61652 2.75627 2.8672 2.9476 2.99638 0.957663 2.57338 2.53306 2.46652 2.3747 2.25903 2.12113 1.96308 1.78707 1.59575 1.39179 1.17811 0.988616 2.7112 2.66817 2.59712 2.49913 2.37565 2.22853 2.05988 1.8722 1.66823 1.45085 1.22327 1.01958 2.85223 2.80636 2.73066 2.62632 2.49484 2.33814 2.15865 1.95894 1.74191 1.51079 1.26886 1.05052 2.99638 2.9476 2.8672 2.75627 2.61652 2.45006 2.25934 2.04725 1.81683 1.5715 1.31484 0.73351 0.508748 0.286295 0.0691064 -0.140126 -0.338782 -0.524638 -0.695598 -0.850007 -0.986417 -1.10381 0.75019 0.511303 0.2751 0.0447849 -0.176775 -0.386799 -0.582798 -0.762636 -0.924437 -1.06673 -1.18844 0.766469 0.513024 0.262721 0.0188519 -0.215356 -0.437015 -0.643518 -0.832424 -1.00181 -1.15014 -1.27622 0.782297 0.513901 0.249049 -0.00870514 -0.255945 -0.489614 -0.7068 -0.905068 -1.08228 -1.23673 -1.36724 
</DataArray>
<DataArray Name="Warping_Y" format="ascii" type="Float64">
1.23337 -0.283268 1.08041 0.924391 0.768195 0.61432 0.465199 0.323076 0.190046 0.0679357 -0.0416258 -0.137338 -0.218112 -0.337036 1.28208 1.1173 0.949653 0.782002 0.617072 0.457432 0.305538 0.163601 0.0335943 -0.0827163 -0.183955 -0.268978 -0.3941 1.33084 1.1538 0.974043 0.794539 0.618163 0.447675 0.28565 0.134525 -0.00357387 -0.126848 -0.233755 -0.323112 -0.45445 1.37965 1.18984 0.997625 0.805862 0.61762 0.435896 0.263476 0.102871 -0.0436062 -0.174014 -0.286724 -0.380503 1.346e-15 -0.332365 -0.365332 -0.382391 -0.384119 -0.371357 -0.345222 -0.307121 -0.25866 -0.201678 -0.138148 -0.0701913 -1.79261e-14 -0.387678 -0.420829 -0.43677 -0.43609 -0.419708 -0.388875 -0.34508 -0.290087 -0.225874 -0.154584 -0.0784997 -3.69596e-14 -0.446261 -0.479528 -0.494182 -0.490909 -0.470698 -0.434862 -0.385056 -0.323175 -0.251346 -0.171887 -0.0872408 -5.62707e-14 -0.508102 -0.541384 -0.554646 -0.548585 -0.524274 -0.483172 -0.427038 -0.357909 -0.278069 -0.190025 -0.0964097 0.283268 0.0701913 0.138148 0.201678 0.25866 0.307121 0.345222 0.371357 0.384119 0.382391 0.365332 0.332365 0.337036 0.0784997 0.154584 0.225874 0.290087 0.34508 0.388875 0.419708 0.43609 0.43677 0.420829 0.387678 0.3941 0.0872408 0.171887 0.251346 0.323175 0.385056 0.434862 0.470698 0.490909 0.494182 0.479528 0.446261 0.45445 0.0964097 0.190025 0.278069 0.357909 0.427038 0.483172 0.524274 0.548585 0.554646 0.541384 0.508102 -1.23337 0.218112 0.137338 0.0416258 -0.0679357 -0.190046 -0.323076 -0.465199 -0.61432 -0.768195 -0.924391 -1.08041 -1.28208 0.268978 0.183955 0.0827163 -0.0335943 -0.163601 -0.305538 -0.457432 -0.617072 -0.782002 -0.949653 -1.1173 -1.33084 0.323112 0.233755 0.126848 0.00357387 -0.134525 -0.28565 -0.447675 -0.618163 -0.794539 -0.974043 -1.1538 -1.37965 0.380503 0.286724 0.174014 0.0436062 -0.102871 -0.263476 -0.435896 -0.61762 -0.805862 -0.997625 -1.18984 -2.08215 -1.3827 -1.52547 -1.65932 -1.78148 -1.88943 -1.98076 -2.05338 -2.1054 -2.13531 -2.14193 -2.12434 -2.20999 -1.44262 -1.59676 -1.74143 -1.87374 -1.99094 -2.09045 -2.16996 -2.22751 -2.26138 -2.27028 -2.25333 -2.34109 -1.50323 -1.66907 -1.82496 -1.96778 -2.09455 -2.20252 -2.28924 -2.35247 -2.39046 -2.40184 -2.38556 -2.47548 -1.56439 -1.74233 -1.90986 -2.06357 -2.20026 -2.317 -2.41113 -2.48034 -2.52265 -2.53656 -2.52106 5.21024e-13 -2.01523 -1.92398 -1.80903 -1.67158 -1.51304 -1.33524 -1.14029 -0.930575 -0.708771 -0.47772 -0.240431 4.34972e-13 -2.14016 -2.04422 -1.92291 -1.77745 -1.60933 -1.42057 -1.21341 -0.990407 -0.754446 -0.508558 -0.255966 3.50629e-13 -2.26831 -2.1676 -2.03976 -1.88608 -1.70823 -1.50821 -1.2885 -1.05189 -0.801393 -0.540272 -0.271923 2.64886e-13 -2.39972 -2.29414 -2.15967 -1.99758 -1.80967 -1.59813 -1.3656 -1.115 -0.849553 -0.572783 -0.288304 2.08215 0.240431 0.47772 0.708771 0.930575 1.14029 1.33524 1.51304 1.67158 1.80903 1.92398 2.01523 2.20999 0.255966 0.508558 0.754446 0.990407 1.21341 1.42057 1.60933 1.77745 1.92291 2.04422 2.14016 2.34109 0.271923 0.540272 0.801393 1.05189 1.2885 1.50821 1.70823 1.88608 2.03976 2.1676 2.26831 2.47548 0.288304 0.572783 0.849553 1.115 1.3656 1.59813 1.80967 1.99758 2.15967 2.29414 2.39972 2.12434 2.14193 2.13531 2.1054 2.05338 1.98076 1.88943 1.78148 1.65932 1.52547 1.3827 2.25333 2.27028 2.26138 2.22751 2.16996 2.09045 1.99094 1.87374 1.74143 1.59676 1.44262 2.38556 2.40184 2.39046 2.35247 2.28924 2.20252 2.09455 1.96778 1.82496 1.66907 1.50323 2.52106 2.53656 2.52265 2.48034 2.41113 2.317 2.20026 2.06357 1.90986 1.74233 1.56439 
</DataArray>
<DataArray Name="Warping_Z" format="ascii" type="Float64">
0 0 0 0 0 0 0 0 0 0 0 0 0 0 0 0 0 0 0 0 0 0 0 0 0 0 0 0 0 0 0 0 0 0 0 0 0 0 0 0 0 0 0 0 0 0 0 0 0 0 0 0 0 0 0 0 0 0 0 0 0 0 0 0 0 0 0 0 0 0 0 0 0 0 0 0 0 0 0 0 0 0 0 0 0 0 0 0 0 0 0 0 0 0 0 0 0 0 0 0 0 0 0 0 0 0 0 0 0 0 0 0 0 0 0 0 0 0 0 0 0 0 0 0 0 0 0 0 0 0 0 0 0 0 0 0 0 0 0 0 0 0 0 0 0 0 0 0 0 0 0 0 0 0 0 0 0 0 0 0 0 0 0 0 0 0 0 0 0 0 0 0 0 0 0 0 0 0 0 0 0 0 0 0 0 0 0 0 0 0 0 0 0 0 0 0 0 0 0 0 0 0 0 0 0 0 0 0 0 0 0 0 0 0 0 0 0 0 0 0 0 0 0 0 0 0 0 0 0 0 0 0 0 0 0 0 0 0 0 0 0 0 0 0 0 0 0 0 0 0 0 0 0 0 0 0 0 0 0 0 0 0 0 0 0 0 0 0 0 0 0 0 0 0 0 0 0 0 0 0 0 0 0 0 0 0 0 0 0 0 0 0 0 0 0 0 0 0 0 0 0 0 0 0 0 0 0 0 0 0 0 0 0 0 0 0 0 0 0 0 0 0 0 0 0 0 0 0 0 0 0 0 0 0 0 0 0 0 0 0 0 0 0 0 0 0 0 0 0 0 0 0 0 0 0 0 0 0 0 0 0 0 0 0 0 0 0 0 0 0 0 0 0 0 0 0 0 0 0 0 0 0 0 0 
</DataArray>
</PointData>
<CellData>
<DataArray Name="MaterialId" format="ascii" type="Float64">
1 1 1 1 1 1 1 1 1 1 1 1 1 1 1 1 1 1 1 1 1 1 1 1 1 1 1 1 1 1 1 1 1 1 1 1 1 1 1 1 1 1 1 1 1 1 1 1 1 1 1 1 1 1 1 1 1 1 1 1 1 1 1 1 1 1 1 1 1 1 1 1 1 1 1 1 1 1 1 1 1 1 1 1 1 1 1 1 1 1 1 1 1 1 1 1 1 1 1 1 1 1 1 1 1 1 1 1 1 1 1 1 1 1 1 1 1 1 1 1 1 1 1 1 1 1 1 1 1 1 1 1 1 1 1 1 1 1 1 1 1 1 1 1 2 2 2 2 2 2 2 2 2 2 2 2 2 2 2 2 2 2 2 2 2 2 2 2 2 2 2 2 2 2 2 2 2 2 2 2 2 2 2 2 2 2 2 2 2 2 2 2 2 2 2 2 2 2 2 2 2 2 2 2 2 2 2 2 2 2 2 2 2 2 2 2 2 2 2 2 2 2 2 2 2 2 2 2 2 2 2 2 2 2 2 2 2 2 2 2 2 2 2 2 2 2 2 2 2 2 2 2 2 2 2 2 2 2 2 2 2 2 2 2 2 2 2 2 2 2 2 2 2 2 2 2 2 2 2 2 2 2 2 2 2 2 2 2 
</DataArray>
<DataArray Name="FiberAngle" format="ascii" type="Float64">
0 0 0 0 0 0 0 0 0 0 0 0 0 0 0 0 0 0 0 0 0 0 0 0 0 0 0 0 0 0 0 0 0 0 0 0 0 0 0 0 0 0 0 0 0 0 0 0 0 0 0 0 0 0 0 0 0 0 0 0 0 0 0 0 0 0 0 0 0 0 0 0 0 0 0 0 0 0 0 0 0 0 0 0 0 0 0 0 0 0 0 0 0 0 0 0 0 0 0 0 0 0 0 0 0 0 0 0 0 0 0 0 0 0 0 0 0 0 0 0 0 0 0 0 0 0 0 0 0 0 0 0 0 0 0 0 0 0 0 0 0 0 0 0 0 0 0 0 0 0 0 0 0 0 0 0 0 0 0 0 0 0 0 0 0 0 0 0 0 0 0 0 0 0 0 0 0 0 0 0 0 0 0 0 0 0 0 0 0 0 0 0 0 0 0 0 0 0 0 0 0 0 0 0 0 0 0 0 0 0 0 0 0 0 0 0 0 0 0 0 0 0 0 0 0 0 0 0 0 0 0 0 0 0 0 0 0 0 0 0 0 0 0 0 0 0 0 0 0 0 0 0 0 0 0 0 0 0 0 0 0 0 0 0 0 0 0 0 0 0 0 0 0 0 0 0 0 0 0 0 0 0 0 0 0 0 0 0 
</DataArray>
<DataArray Name="Strain_11" format="ascii" type="Float64">
13.7084 11.9473 10.1944 8.45832 6.74894 5.07371 3.43975 1.85395 0.323422 -1.14556 -2.5466 -3.87358 13.6584 11.8401 10.0222 8.22832 6.46149 4.72901 3.03887 1.39819 -0.186196 -1.7073 -3.15878 -4.53432 13.6035 11.7251 9.85117 7.99782 6.17244 4.38264 2.63589 0.939807 -0.69828 -2.27168 -3.7736 -5.19744 -5.1211 -6.28357 -7.3565 -8.33507 -9.21541 -9.99393 -10.6671 -11.2324 -11.6875 -12.0304 -12.2597 -12.3746 -5.828 -7.0343 -8.14797 -9.16451 -10.0795 -10.8885 -11.5889 -12.1771 -12.6505 -13.0076 -13.2463 -13.3661 -6.53708 -7.78661 -8.94096 -9.9948 -10.9436 -11.7832 -12.5099 -13.1205 -13.6122 -13.9829 -14.231 -14.3553 -12.3746 -12.2597 -12.0304 -11.6875 -11.2324 -10.6671 -9.99393 -9.21541 -8.33507 -7.3565 -6.28357 -5.1211 -13.3661 -13.2463 -13.0076 -12.6505 -12.1771 -11.5889 -10.8885 -10.0795 -9.16451 -8.14797 -7.0343 -5.828 -14.3553 -14.231 -13.9829 -13.6122 -13.1205 -12.5099 -11.7832 -10.9436 -9.9948 -8.94096 -7.78661 -6.53708 -3.87358 -2.5466 -1.14556 0.323422 1.85395 3.43975 5.07371 6.74894 8.45832 10.1944 11.9473 13.7084 -4.53432 -3.15878 -1.7073 -0.186196 1.39819 3.03887 4.72901 6.46149 8.22832 10.0222 11.8401 13.6584 -5.19744 -3.7736 -2.27168 -0.69828 0.939807 2.63589 4.38264 6.17244 7.99782 9.85117 11.7251 13.6035 15.6653 17.4098 19.1379 20.8461 22.528 24.1774 25.7874 27.3519 28.864 30.318 31.7075 33.0264 15.4711 17.3163 19.1297 20.9267 22.6965 24.4314 26.1237 27.766 29.3516 30.8734 32.3251 33.7004 15.3146 17.2257 19.1301 21.0124 22.8666 24.6837 26.4554 28.1737 29.8307 31.4193 32.9327 34.3643 34.2691 35.4298 36.5036 37.4852 38.3703 39.1546 39.8342 40.4057 40.8665 41.2141 41.4467 41.5633 34.9934 36.1986 37.3109 38.3258 39.2391 40.0463 40.7449 41.3315 41.8036 42.1595 42.3975 42.5168 35.7081 36.9586 38.111 39.1606 40.1035 40.9359 41.6552 42.2584 42.7434 43.1087 43.353 43.4753 41.5633 41.4467 41.2141 40.8665 40.4057 39.8342 39.1546 38.3703 37.4852 36.5036 35.4298 34.2691 42.5168 42.3975 42.1595 41.8036 41.3315 40.7449 40.0463 39.2391 38.3258 37.3109 36.1986 34.9934 43.4753 43.353 43.1087 42.7434 42.2584 41.6552 40.9359 40.1035 39.1606 38.111 36.9586 35.7081 33.0264 31.7075 30.318 28.864 27.3519 25.7874 24.1774 22.528 20.8461 19.1379 17.4098 15.6653 33.7004 32.3251 30.8734 29.3516 27.766 26.1237 24.4314 22.6965 20.9267 19.1297 17.3163 15.4711 34.3643 32.9327 31.4193 29.8307 28.1737 26.4554 24.6837 22.8666 21.0124 19.1301 17.2257 15.3146 
</DataArray>
<DataArray Name="Strain_22" format="ascii" type="Float64">
13.7088 11.9277 10.181 8.45045 6.74631 5.07486 3.44422 1.86031 0.330486 -1.13888 -2.54171 -3.87161 13.6847 11.8343 10.0227 8.22932 6.4615 4.72898 3.03822 1.39724 -0.187189 -1.70871 -3.16025 -4.53591 13.6622 11.7398 9.86688 8.00821 6.17823 4.38423 2.63458 0.936324 -0.702844 -2.27609 -3.77686 -5.1984 -5.12314 -6.29054 -7.36893 -8.35365 -9.24027 -10.0249 -10.7041 -11.2747 -11.7343 -12.0808 -12.3126 -12.4288 -5.82966 -7.03585 -8.14969 -9.16604 -10.0808 -10.89 -11.59 -12.1781 -12.6515 -13.0084 -13.2473 -13.3669 -6.53474 -7.78032 -8.92981 -9.9786 -10.9221 -11.7562 -12.4778 -13.0838 -13.5716 -13.9391 -14.185 -14.3083 -12.4288 -12.3126 -12.0808 -11.7343 -11.2747 -10.7041 -10.0249 -9.24027 -8.35365 -7.36893 -6.29054 -5.12314 -13.3669 -13.2473 -13.0084 -12.6515 -12.1781 -11.59 -10.89 -10.0808 -9.16604 -8.14969 -7.03585 -5.82966 -14.3083 -14.185 -13.9391 -13.5716 -13.0838 -12.4778 -11.7562 -10.9221 -9.9786 -8.92981 -7.78032 -6.53474 -3.87161 -2.54171 -1.13888 0.330486 1.86031 3.44422 5.07486 6.74631 8.45045 10.181 11.9277 13.7088 -4.53591 -3.16025 -1.70871 -0.187189 1.39724 3.03822 4.72898 6.4615 8.22932 10.0227 11.8343 13.6847 -5.1984 -3.77686 -2.27609 -0.702844 0.936324 2.63458 4.38423 6.17823 8.00821 9.86688 11.7398 13.6622 15.4518 17.1732 18.9359 20.6736 22.3861 24.0644 25.7006 27.2879 28.8188 30.2865 31.6851 33.0081 15.5252 17.3234 19.1323 20.9249 22.6885 24.4178 26.1058 27.7443 29.3269 30.847 32.2977 33.6731 15.5888 17.4613 19.328 21.1747 22.993 24.7764 26.5175 28.2094 29.8451 31.4178 32.9211 34.3482 34.2503 35.4063 36.4716 37.4422 38.3141 39.0841 39.7493 40.3072 40.756 41.0939 41.3198 41.4329 34.9669 36.1737 37.2884 38.306 39.222 40.0327 40.7342 41.3236 41.7982 42.1561 42.3956 42.5155 35.6929 36.9493 38.1115 39.1743 40.1327 40.9817 41.7176 42.3366 42.8356 43.212 43.4641 43.5905 41.4329 41.3198 41.0939 40.756 40.3072 39.7493 39.0841 38.3141 37.4422 36.4716 35.4063 34.2503 42.5155 42.3956 42.1561 41.7982 41.3236 40.7342 40.0327 39.222 38.306 37.2884 36.1737 34.9669 43.5905 43.4641 43.212 42.8356 42.3366 41.7176 40.9817 40.1327 39.1743 38.1115 36.9493 35.6929 33.0081 31.6851 30.2865 28.8188 27.2879 25.7006 24.0644 22.3861 20.6736 18.9359 17.1732 15.4518 33.6731 32.2977 30.847 29.3269 27.7443 26.1058 24.4178 22.6885 20.9249 19.1323 17.3234 15.5252 34.3482 32.9211 31.4178 29.8451 28.2094 26.5175 24.7764 22.993 21.1747 19.328 17.4613 15.5888 
</DataArray>
<DataArray Name="Strain_12" format="ascii" type="Float64">
-0.00956707 0.012382 0.00415132 0.0036361 0.00202249 -0.000877992 -0.00492655 -0.00921813 -0.0142412 -0.0193335 -0.024031 -0.0285309 -0.00286106 -0.000455876 -0.00299489 -0.00286237 -0.00273736 -0.0026777 -0.00243201 -0.00241825 -0.00217455 -0.00168732 -0.00169418 -0.00127264 0.0082651 -0.0115678 -0.0035531 -0.00398819 -0.00298244 -0.000508063 0.0025601 0.0065907 0.0107136 0.0149976 0.0194047 0.0233417 -0.0322492 -0.0352276 -0.037078 -0.0377203 -0.0372744 -0.0355026 -0.0323615 -0.0283749 -0.0230648 -0.0171621 -0.0104963 -0.00357255 -0.000993199 -0.000878931 -0.000452448 -0.000533871 -6.32071e-05 -7.11316e-06 -0.000196813 0.000217595 0.000100141 3.34585e-05 4.08952e-05 1.84591e-05 0.0267581 0.0293804 0.0311813 0.0319843 0.0316459 0.0301 0.0279071 0.0241876 0.0197634 0.0148252 0.0090173 0.00307766 0.00357255 0.0104963 0.0171621 0.0230648 0.0283749 0.0323615 0.0355026 0.0372744 0.0377203 0.037078 0.0352276 0.0322492 -1.84591e-05 -4.08952e-05 -3.34585e-05 -0.000100141 -0.000217595 0.000196813 7.11316e-06 6.32071e-05 0.000533871 0.000452448 0.000878931 0.000993199 -0.00307766 -0.0090173 -0.0148252 -0.0197634 -0.0241876 -0.0279071 -0.0301 -0.0316459 -0.0319843 -0.0311813 -0.0293804 -0.0267581 0.0285309 0.024031 0.0193335 0.0142412 0.00921813 0.00492655 0.000877992 -0.00202249 -0.0036361 -0.00415132 -0.012382 0.00956707 0.00127264 0.00169418 0.00168732 0.00217455 0.00241825 0.00243201 0.0026777 0.00273736 0.00286237 0.00299489 0.000455876 0.00286106 -0.0233417 -0.0194047 -0.0149976 -0.0107136 -0.0065907 -0.0025601 0.000508063 0.00298244 0.00398819 0.0035531 0.0115678 -0.0082651 -0.0471502 0.0300182 0.0420869 0.0572849 0.0655897 0.0674941 0.0639546 0.0553249 0.0432591 0.0284807 0.0119207 -0.00485397 -0.0305794 -0.0437441 -0.0399421 -0.0407096 -0.0384427 -0.0357608 -0.0322892 -0.0279514 -0.0233784 -0.0187642 -0.0136189 -0.00903561 -0.013937 -0.0754391 -0.0919707 -0.104691 -0.111045 -0.109935 -0.10253 -0.0901374 -0.0733618 -0.0537447 -0.0327565 -0.0113286 -0.0211231 -0.0356739 -0.0478879 -0.0570972 -0.0626452 -0.0644663 -0.0626472 -0.056847 -0.048123 -0.0363865 -0.02275 -0.00770091 -0.00464209 -0.00056408 0.002536 0.00547183 0.00700888 0.00815098 0.00875817 0.00792828 0.0070176 0.00548823 0.00344195 0.00117142 0.00917448 0.0277538 0.0433524 0.0552828 0.0631554 0.0667391 0.0653833 0.06038 0.0513548 0.0389217 0.0244663 0.00828961 0.00770091 0.02275 0.0363865 0.048123 0.056847 0.0626472 0.0644663 0.0626452 0.0570972 0.0478879 0.0356739 0.0211231 -0.00117142 -0.00344195 -0.00548823 -0.0070176 -0.00792828 -0.00875817 -0.00815098 -0.00700888 -0.00547183 -0.002536 0.00056408 0.00464209 -0.00828961 -0.0244663 -0.0389217 -0.0513548 -0.06038 -0.0653833 -0.0667391 -0.0631554 -0.0552828 -0.0433524 -0.0277538 -0.00917448 0.00485397 -0.0119207 -0.0284807 -0.0432591 -0.0553249 -0.0639546 -0.0674941 -0.0655897 -0.0572849 -0.0420869 -0.0300182 0.0471502 0.00903561 0.0136189 0.0187642 0.0233784 0.0279514 0.0322892 0.0357608 0.0384427 0.0407096 0.0399421 0.0437441 0.0305794 0.0113286 0.0327565 0.0537447 0.0733618 0.0901374 0.10253 0.109935 0.111045 0.104691 0.0919707 0.0754391 0.013937 
</DataArray>
<DataArray Name="Strain_13" format="ascii" type="Float64">
0 0 0 0 0 0 0 0 0 0 0 0 0 0 0 0 0 0 0 0 0 0 0 0 0 0 0 0 0 0 0 0 0 0 0 0 0 0 0 0 0 0 0 0 0 0 0 0 0 0 0 0 0 0 0 0 0 0 0 0 0 0 0 0 0 0 0 0 0 0 0 0 0 0 0 0 0 0 0 0 0 0 0 0 0 0 0 0 0 0 0 0 0 0 0 0 0 0 0 0 0 0 0 0 0 0 0 0 0 0 0 0 0 0 0 0 0 0 0 0 0 0 0 0 0 0 0 0 0 0 0 0 0 0 0 0 0 0 0 0 0 0 0 0 0 0 0 0 0 0 0 0 0 0 0 0 0 0 0 0 0 0 0 0 0 0 0 0 0 0 0 0 0 0 0 0 0 0 0 0 0 0 0 0 0 0 0 0 0 0 0 0 0 0 0 0 0 0 0 0 0 0 0 0 0 0 0 0 0 0 0 0 0 0 0 0 0 0 0 0 0 0 0 0 0 0 0 0 0 0 0 0 0 0 0 0 0 0 0 0 0 0 0 0 0 0 0 0 0 0 0 0 0 0 0 0 0 0 0 0 0 0 0 0 0 0 0 0 0 0 0 0 0 0 0 0 0 0 0 0 0 0 0 0 0 0 0 0 
</DataArray>
<DataArray Name="Strain_23" format="ascii" type="Float64">
0 0 0 0 0 0 0 0 0 0 0 0 0 0 0 0 0 0 0 0 0 0 0 0 0 0 0 0 0 0 0 0 0 0 0 0 0 0 0 0 0 0 0 0 0 0 0 0 0 0 0 0 0 0 0 0 0 0 0 0 0 0 0 0 0 0 0 0 0 0 0 0 0 0 0 0 0 0 0 0 0 0 0 0 0 0 0 0 0 0 0 0 0 0 0 0 0 0 0 0 0 0 0 0 0 0 0 0 0 0 0 0 0 0 0 0 0 0 0 0 0 0 0 0 0 0 0 0 0 0 0 0 0 0 0 0 0 0 0 0 0 0 0 0 0 0 0 0 0 0 0 0 0 0 0 0 0 0 0 0 0 0 0 0 0 0 0 0 0 0 0 0 0 0 0 0 0 0 0 0 0 0 0 0 0 0 0 0 0 0 0 0 0 0 0 0 0 0 0 0 0 0 0 0 0 0 0 0 0 0 0 0 0 0 0 0 0 0 0 0 0 0 0 0 0 0 0 0 0 0 0 0 0 0 0 0 0 0 0 0 0 0 0 0 0 0 0 0 0 0 0 0 0 0 0 0 0 0 0 0 0 0 0 0 0 0 0 0 0 0 0 0 0 0 0 0 0 0 0 0 0 0 0 0 0 0 0 0 
</DataArray>
<DataArray Name="Strain_33" format="ascii" type="Float64">
0.0029975 0.00897975 0.0149237 0.020804 0.0265952 0.0322725 0.0378112 0.0431882 0.0483802 0.0533653 0.0581217 0.0626292 0.0031065 0.0093065 0.0154668 0.0215605 0.027562 0.0334457 0.0391862 0.0447587 0.0501395 0.0553058 0.0602353 0.0649067 0.0032155 0.00963325 0.0160097 0.0223173 0.0285293 0.0346192 0.0405612 0.0463293 0.0518988 0.0572462 0.0623487 0.0671843 0.0668688 0.0708215 0.074471 0.0778018 0.0807995 0.0834513 0.0857455 0.0876725 0.0892242 0.090394 0.0911762 0.0915682 0.0693003 0.0733967 0.077179 0.080631 0.0837377 0.0864858 0.0888635 0.0908607 0.0924688 0.093681 0.094492 0.0948983 0.0717317 0.075972 0.079887 0.0834602 0.086676 0.0895203 0.0919815 0.094049 0.0957135 0.096968 0.0978075 0.0982283 0.0915682 0.0911763 0.090394 0.0892242 0.0876725 0.0857455 0.0834513 0.0807995 0.0778018 0.074471 0.0708215 0.0668688 0.0948982 0.094492 0.093681 0.0924687 0.0908608 0.0888635 0.0864858 0.0837377 0.080631 0.077179 0.0733968 0.0693003 0.0982283 0.0978075 0.096968 0.0957135 0.094049 0.0919815 0.0895202 0.086676 0.0834602 0.079887 0.075972 0.0717317 0.0626292 0.0581217 0.0533652 0.0483802 0.0431882 0.0378112 0.0322725 0.0265952 0.020804 0.0149237 0.00897975 0.0029975 0.0649067 0.0602352 0.0553058 0.0501395 0.0447587 0.0391862 0.0334457 0.027562 0.0215605 0.0154668 0.0093065 0.0031065 0.0671843 0.0623487 0.0572462 0.0518988 0.0463293 0.0405613 0.0346192 0.0285292 0.0223173 0.0160097 0.00963325 0.0032155 -0.0029975 -0.00897975 -0.0149237 -0.020804 -0.0265952 -0.0322725 -0.0378112 -0.0431882 -0.0483802 -0.0533653 -0.0581217 -0.0626292 -0.0031065 -0.0093065 -0.0154668 -0.0215605 -0.027562 -0.0334457 -0.0391862 -0.0447587 -0.0501395 -0.0553058 -0.0602353 -0.0649067 -0.0032155 -0.00963325 -0.0160097 -0.0223173 -0.0285293 -0.0346192 -0.0405612 -0.0463293 -0.0518988 -0.0572462 -0.0623487 -0.0671843 -0.0668688 -0.0708215 -0.074471 -0.0778018 -0.0807995 -0.0834513 -0.0857455 -0.0876725 -0.0892242 -0.090394 -0.0911762 -0.0915682 -0.0693003 -0.0733967 -0.077179 -0.080631 -0.0837377 -0.0864858 -0.0888635 -0.0908607 -0.0924688 -0.093681 -0.094492 -0.0948983 -0.0717317 -0.075972 -0.079887 -0.0834602 -0.086676 -0.0895203 -0.0919815 -0.094049 -0.0957135 -0.096968 -0.0978075 -0.0982283 -0.0915682 -0.0911763 -0.090394 -0.0892242 -0.0876725 -0.0857455 -0.0834513 -0.0807995 -0.0778018 -0.074471 -0.0708215 -0.0668688 -0.0948982 -0.094492 -0.093681 -0.0924687 -0.0908608 -0.0888635 -0.0864858 -0.0837377 -0.080631 -0.077179 -0.0733968 -0.0693003 -0.0982283 -0.0978075 -0.096968 -0.0957135 -0.094049 -0.0919815 -0.0895202 -0.086676 -0.0834602 -0.079887 -0.075972 -0.0717317 -0.0626292 -0.0581217 -0.0533652 -0.0483802 -0.0431882 -0.0378112 -0.0322725 -0.0265952 -0.020804 -0.0149237 -0.00897975 -0.0029975 -0.0649067 -0.0602352 -0.0553058 -0.0501395 -0.0447587 -0.0391862 -0.0334457 -0.027562 -0.0215605 -0.0154668 -0.0093065 -0.0031065 -0.0671843 -0.0623487 -0.0572462 -0.0518988 -0.0463293 -0.0405613 -0.0346192 -0.0285292 -0.0223173 -0.0160097 -0.00963325 -0.0032155 
</DataArray>
<DataArray Name="Stress_11" format="ascii" type="Float64">
1904.03 1659.05 1415.93 1175.13 938.019 705.611 478.917 258.869 46.4599 -157.437 -351.944 -536.203 1897.82 1644.55 1392.42 1143.45 898.195 657.735 423.136 195.41 -24.4954 -235.628 -437.087 -628.008 1891.1 1629.16 1369.1 1111.72 858.237 609.706 367.186 131.719 -95.6685 -314.044 -522.47 -720.027 -709.463 -870.945 -1020.01 -1156 -1278.36 -1386.59 -1480.19 -1558.79 -1622.08 -1669.78 -1701.67 -1717.66 -807.566 -974.99 -1129.57 -1270.65 -1397.64 -1509.94 -1607.13 -1688.76 -1754.48 -1804.03 -1837.17 -1853.78 -905.87 -1079.19 -1239.27 -1385.4 -1516.94 -1633.32 -1734.04 -1818.66 -1886.8 -1938.16 -1972.53 -1989.76 -1717.66 -1701.67 -1669.78 -1622.08 -1558.79 -1480.19 -1386.59 -1278.36 -1156 -1020.01 -870.945 -709.463 -1853.78 -1837.17 -1804.03 -1754.48 -1688.76 -1607.13 -1509.94 -1397.64 -1270.65 -1129.57 -974.99 -807.566 -1989.76 -1972.53 -1938.16 -1886.8 -1818.66 -1734.04 -1633.32 -1516.94 -1385.4 -1239.27 -1079.19 -905.87 -536.203 -351.944 -157.437 46.4599 258.869 478.917 705.611 938.019 1175.13 1415.93 1659.05 1904.03 -628.008 -437.087 -235.628 -24.4954 195.41 423.136 657.735 898.195 1143.45 1392.42 1644.55 1897.82 -720.027 -522.47 -314.044 -95.6685 131.719 367.186 609.706 858.237 1111.72 1369.1 1629.16 1891.1 216.972 241.121 265.202 288.992 312.421 335.393 357.812 379.589 400.629 420.848 440.158 458.475 215.018 240.498 265.654 290.584 315.131 339.195 362.67 385.455 407.453 428.571 448.717 467.805 213.455 239.873 266.201 292.228 317.864 342.99 367.496 391.272 414.211 436.216 457.194 477.051 475.721 491.818 506.699 520.293 532.54 543.387 552.778 560.673 567.035 571.833 575.043 576.652 485.753 502.485 517.93 532.024 544.707 555.921 565.624 573.774 580.333 585.279 588.586 590.244 495.705 513.077 529.099 543.704 556.833 568.433 578.462 586.878 593.649 598.75 602.161 603.871 576.652 575.043 571.833 567.035 560.673 552.778 543.387 532.54 520.293 506.699 491.818 475.721 590.244 588.586 585.279 580.333 573.774 565.624 555.921 544.707 532.024 517.93 502.485 485.753 603.871 602.161 598.75 593.649 586.878 578.462 568.433 556.833 543.704 529.099 513.077 495.705 458.475 440.158 420.848 400.629 379.589 357.812 335.393 312.421 288.992 265.202 241.121 216.972 467.805 448.717 428.571 407.453 385.455 362.67 339.195 315.131 290.584 265.654 240.498 215.018 477.051 457.194 436.216 414.211 391.272 367.496 342.99 317.864 292.228 266.201 239.873 213.455 
</DataArray>
<DataArray Name="Stress_22" format="ascii" type="Float64">
1904.07 1657.42 1414.81 1174.47 937.799 705.706 479.29 259.399 47.0485 -156.881 -351.536 -536.039 1900.01 1644.07 1392.46 1143.53 898.196 657.733 423.082 195.331 -24.5781 -235.745 -437.209 -628.14 1895.99 1630.39 1370.41 1112.58 858.719 609.838 367.077 131.429 -96.0488 -314.411 -522.741 -720.107 -709.633 -871.525 -1021.05 -1157.55 -1280.44 -1389.17 -1483.27 -1562.31 -1625.98 -1673.98 -1706.09 -1722.17 -807.704 -975.12 -1129.71 -1270.78 -1397.75 -1510.06 -1607.22 -1688.85 -1754.56 -1804.1 -1837.25 -1853.85 -905.675 -1078.66 -1238.34 -1384.05 -1515.15 -1631.07 -1731.37 -1815.6 -1883.41 -1934.51 -1968.7 -1985.84 -1722.17 -1706.09 -1673.98 -1625.98 -1562.31 -1483.27 -1389.17 -1280.44 -1157.55 -1021.05 -871.525 -709.633 -1853.85 -1837.25 -1804.1 -1754.56 -1688.85 -1607.22 -1510.06 -1397.75 -1270.78 -1129.71 -975.12 -807.704 -1985.84 -1968.7 -1934.51 -1883.41 -1815.6 -1731.37 -1631.07 -1515.15 -1384.05 -1238.34 -1078.66 -905.675 -536.039 -351.536 -156.881 47.0485 259.399 479.29 705.706 937.799 1174.47 1414.81 1657.42 1904.07 -628.14 -437.209 -235.745 -24.5781 195.331 423.082 657.733 898.196 1143.53 1392.46 1644.07 1900.01 -720.107 -522.741 -314.411 -96.0488 131.429 367.077 609.838 858.719 1112.58 1370.41 1630.39 1895.99 215.192 239.149 263.519 287.555 311.238 334.452 357.089 379.056 400.252 420.586 439.972 458.323 215.469 240.558 265.676 290.569 315.064 339.082 362.521 385.274 407.247 428.351 448.488 467.577 215.74 241.836 267.85 293.58 318.917 343.763 368.013 391.57 414.331 436.203 457.097 476.917 475.565 491.623 506.432 519.934 532.072 542.799 552.071 559.852 566.114 570.832 573.985 575.565 485.533 502.278 517.743 531.858 544.565 555.808 565.535 573.709 580.289 585.25 588.571 590.233 495.578 512.999 529.103 543.818 557.076 568.814 578.982 587.53 594.417 599.611 603.088 604.831 575.565 573.985 570.832 566.114 559.852 552.071 542.799 532.072 519.934 506.432 491.623 475.565 590.233 588.571 585.25 580.289 573.709 565.535 555.808 544.565 531.858 517.743 502.278 485.533 604.831 603.088 599.611 594.417 587.53 578.982 568.814 557.076 543.818 529.103 512.999 495.578 458.323 439.972 420.586 400.252 379.056 357.089 334.452 311.238 287.555 263.519 239.149 215.192 467.577 448.488 428.351 407.247 385.274 362.521 339.082 315.064 290.569 265.676 240.558 215.469 476.917 457.097 436.203 414.331 391.57 368.013 343.763 318.917 293.58 267.85 241.836 215.74 
</DataArray>
<DataArray Name="Stress_12" format="ascii" type="Float64">
-0.398631 0.515923 0.172973 0.151505 0.0842713 -0.0365833 -0.205275 -0.384092 -0.593388 -0.805568 -1.0013 -1.1888 -0.119212 -0.018995 -0.124788 -0.119266 -0.114058 -0.111572 -0.101334 -0.100761 -0.0906068 -0.0703057 -0.0705913 -0.0530269 0.344382 -0.481997 -0.148047 -0.166176 -0.124269 -0.0211695 0.106672 0.274615 0.446406 0.624907 0.808537 0.972577 -1.34373 -1.46783 -1.54493 -1.57169 -1.55311 -1.47929 -1.34841 -1.1823 -0.961043 -0.715094 -0.43735 -0.148858 -0.0413836 -0.0366224 -0.0188522 -0.0222448 -0.00263365 -0.000296384 -0.00820059 0.00906652 0.00417259 0.00139411 0.00170398 0.000769134 1.11493 1.22419 1.29923 1.33269 1.31859 1.25418 1.16281 1.00782 0.823482 0.61772 0.375724 0.128237 0.148858 0.43735 0.715094 0.961043 1.1823 1.34841 1.47929 1.55311 1.57169 1.54493 1.46783 1.34373 -0.000769134 -0.00170398 -0.00139411 -0.00417259 -0.00906652 0.00820059 0.000296384 0.00263365 0.0222448 0.0188522 0.0366224 0.0413836 -0.128237 -0.375724 -0.61772 -0.823482 -1.00782 -1.16281 -1.25418 -1.31859 -1.33269 -1.29923 -1.22419 -1.11493 1.1888 1.0013 0.805568 0.593388 0.384092 0.205275 0.0365833 -0.0842713 -0.151505 -0.172973 -0.515923 0.398631 0.0530269 0.0705913 0.0703057 0.0906068 0.100761 0.101334 0.111572 0.114058 0.119266 0.124788 0.018995 0.119212 -0.972577 -0.808537 -0.624907 -0.446406 -0.274615 -0.106672 0.0211695 0.124269 0.166176 0.148047 0.481997 -0.344382 -0.196461 0.125077 0.175364 0.238689 0.273293 0.281228 0.266479 0.230522 0.180248 0.11867 0.0496699 -0.020225 -0.127415 -0.182269 -0.166427 -0.169625 -0.160179 -0.149004 -0.134539 -0.116465 -0.0974108 -0.0781849 -0.0567457 -0.0376487 -0.0580711 -0.314332 -0.383214 -0.436216 -0.462691 -0.458067 -0.427214 -0.375575 -0.305677 -0.223938 -0.136487 -0.0472029 -0.0880135 -0.148642 -0.199534 -0.237907 -0.261024 -0.268612 -0.261032 -0.236865 -0.200514 -0.151612 -0.0947926 -0.0320874 -0.0193422 -0.00235035 0.0105668 0.0227995 0.0292039 0.0339627 0.0364927 0.0330348 0.0292402 0.0228678 0.0143416 0.00488095 0.0382273 0.115642 0.180637 0.230347 0.26315 0.278082 0.272433 0.251585 0.21398 0.162175 0.101944 0.0345403 0.0320874 0.0947926 0.151612 0.200514 0.236865 0.261032 0.268612 0.261024 0.237907 0.199534 0.148642 0.0880135 -0.00488095 -0.0143416 -0.0228678 -0.0292402 -0.0330348 -0.0364927 -0.0339627 -0.0292039 -0.0227995 -0.0105668 0.00235035 0.0193422 -0.0345403 -0.101944 -0.162175 -0.21398 -0.251585 -0.272433 -0.278082 -0.26315 -0.230347 -0.180637 -0.115642 -0.0382273 0.020225 -0.0496699 -0.11867 -0.180248 -0.230522 -0.266479 -0.281228 -0.273293 -0.238689 -0.175364 -0.125077 0.196461 0.0376487 0.0567457 0.0781849 0.0974108 0.116465 0.134539 0.149004 0.160179 0.169625 0.166427 0.182269 0.127415 0.0472029 0.136487 0.223938 0.305677 0.375575 0.427214 0.458067 0.462691 0.436216 0.383214 0.314332 0.0580711 
</DataArray>
<DataArray Name="Stress_13" format="ascii" type="Float64">