<?xml version="1.0"?>
<VTKFile byte_order="LittleEndian" type="UnstructuredGrid" version="0.1">
<UnstructuredGrid>
<Piece NumberOfCells="288" NumberOfPoints="384">
<PointData>
<DataArray Name="Warping_X" format="ascii" type="Float64">
-0.019912 0.525083 0.0515901 0.121625 0.189082 0.252846 0.311879 0.365208 0.411969 0.451396 0.482854 0.50585 0.519991 0.566115 -0.0174108 0.0591434 0.134218 0.206512 0.274848 0.338111 0.395252 0.445334 0.487554 0.521201 0.545748 0.560796 0.608668 -0.0150906 0.0669198 0.147216 0.224537 0.297623 0.365272 0.426377 0.479924 0.52502 0.560947 0.587122 0.60311 0.652734 -0.0125102 0.0748672 0.16059 0.243132 0.321155 0.393363 0.458565 0.515697 0.563807 0.602098 0.62995 0.646924 4.46048e-12 0.521045 0.507986 0.486122 0.455875 0.417761 0.372443 0.320709 0.263447 0.201653 0.13639 0.068785 4.46349e-12 0.561625 0.547433 0.523796 0.49114 0.450018 0.401166 0.345415 0.283725 0.217167 0.146881 0.0740747 4.46344e-12 0.603714 0.588357 0.562869 0.527713 0.483499 0.430972 0.37105 0.304774 0.233275 0.157778 0.0795639 4.46089e-12 0.647302 0.630734 0.603347 0.565607 0.518163 0.46184 0.397615 0.32658 0.249953 0.169053 0.0852496 -0.525083 -0.068785 -0.13639 -0.201653 -0.263447 -0.320709 -0.372443 -0.417761 -0.455875 -0.486122 -0.507986 -0.521045 -0.566115 -0.0740747 -0.146881 -0.217167 -0.283725 -0.345415 -0.401166 -0.450018 -0.49114 -0.523796 -0.547433 -0.561625 -0.608668 -0.0795639 -0.157778 -0.233275 -0.304774 -0.37105 -0.430972 -0.483499 -0.527713 -0.562869 -0.588357 -0.603714 -0.652734 -0.0852496 -0.169053 -0.249953 -0.32658 -0.397615 -0.46184 -0.518163 -0.565607 -0.603347 -0.630734 -0.647302 0.019912 -0.519991 -0.50585 -0.482854 -0.451396 -0.411969 -0.365208 -0.311879 -0.252846 -0.189082 -0.121625 -0.0515901 0.0174108 -0.560796 -0.545748 -0.521201 -0.487554 -0.445334 -0.395252 -0.338111 -0.274848 -0.206512 -0.134218 -0.0591434 0.0150906 -0.60311 -0.587122 -0.560947 -0.52502 -0.479924 -0.426377 -0.365272 -0.297623 -0.224537 -0.147216 -0.0669198 0.0125102 -0.646924 -0.62995 -0.602098 -0.563807 -0.515697 -0.458565 -0.393363 -0.321155 -0.243132 -0.16059 -0.0748672 0.56663 0.0909071 0.160923 0.228693 0.293007 0.352716 0.406747 0.454138 0.494038 0.525733 0.548662 0.562373 0.608073 0.0941106 0.169666 0.24281 0.312222 0.376674 0.435009 0.486189 0.529313 0.563589 0.588417 0.603338 0.650996 0.097475 0.178811 0.257505 0.332188 0.401536 0.464324 0.519429 0.565859 0.602805 0.629608 0.64577 0.695407 0.101076 0.188322 0.272759 0.352899 0.427312 0.494684 0.553834 0.603704 0.643404 0.67223 0.689678 -6.31564e-12 0.561319 0.546528 0.522468 0.489563 0.448349 0.399516 0.34389 0.282409 0.216122 0.146155 0.0737036 -6.32246e-12 0.602511 0.586736 0.561 0.525734 0.481513 0.429103 0.369379 0.303354 0.232162 0.157009 0.0791784 -6.32223e-12 0.645169 0.628379 0.600891 0.563176 0.515867 0.459743 0.395772 0.325051 0.248781 0.168259 0.0848472 -6.31629e-12 0.689303 0.671453 0.642165 0.601917 0.551384 0.491428 0.42308 0.347493 0.265959 0.179879 0.0907094 -0.56663 -0.0737036 -0.146155 -0.216122 -0.282409 -0.34389 -0.399516 -0.448349 -0.489563 -0.522468 -0.546528 -0.561319 -0.608073 -0.0791784 -0.157009 -0.232162 -0.303354 -0.369379 -0.429103 -0.481513 -0.525734 -0.561 -0.586736 -0.602511 -0.650996 -0.0848472 -0.168259 -0.248781 -0.325051 -0.395772 -0.459743 -0.515867 -0.563176 -0.600891 -0.628379 -0.645169 -0.695407 -0.0907094 -0.179879 -0.265959 -0.347493 -0.42308 -0.491428 -0.551384 -0.601917 -0.642165 -0.671453 -0.689303 -0.562373 -0.548662 -0.525733 -0.494038 -0.454138 -0.406747 -0.352716 -0.293007 -0.228693 -0.160923 -0.0909071 -0.603338 -0.588417 -0.563589 -0.529313 -0.486189 -0.435009 -0.376674 -0.312222 -0.24281 -0.169666 -0.0941106 -0.64577 -0.629608 -0.602805 -0.565859 -0.519429 -0.464324 -0.401536 -0.332188 -0.257505 -0.178811 -0.097475 -0.689678 -0.67223 -0.643404 -0.603704 -0.553834 -0.494684 -0.427312 -0.352899 -0.272759 -0.188322 -0.101076 
</DataArray>
<DataArray Name="Warping_Y" format="ascii" type="Float64">
-0.545815 0.022158 -0.537028 -0.51944 -0.493267 -0.458896 -0.416888 -0.367881 -0.312688 -0.252172 -0.187348 -0.119262 -0.0490469 0.0219836 -0.587018 -0.577741 -0.558989 -0.531003 -0.494211 -0.449184 -0.396648 -0.337432 -0.272506 -0.202938 -0.129846 -0.0544658 0.0217953 -0.629777 -0.619977 -0.600022 -0.570156 -0.530853 -0.482714 -0.426489 -0.363122 -0.293621 -0.219113 -0.140848 -0.060097 0.0215914 -0.67405 -0.663713 -0.642523 -0.610737 -0.568822 -0.517443 -0.457432 -0.389743 -0.315501 -0.235894 -0.152247 -0.0659413 0.562834 0.0931635 0.162781 0.229874 0.293314 0.35206 0.405106 0.451597 0.490732 0.521884 0.544504 0.558229 0.602677 0.0982263 0.172987 0.245049 0.313182 0.376273 0.433262 0.483189 0.525235 0.55869 0.582994 0.597732 0.644039 0.103474 0.183583 0.260782 0.333802 0.401403 0.462464 0.515986 0.561039 0.596884 0.622937 0.638742 0.686887 0.108902 0.194544 0.277088 0.355157 0.427433 0.492736 0.549951 0.598137 0.636476 0.664315 0.681224 0.022158 0.558229 0.544504 0.521884 0.490732 0.451597 0.405106 0.35206 0.293314 0.229874 0.162781 0.0931635 0.0219836 0.597732 0.582994 0.55869 0.525235 0.483189 0.433262 0.376273 0.313182 0.245049 0.172987 0.0982263 0.0217953 0.638742 0.622937 0.596884 0.561039 0.515986 0.462464 0.401403 0.333802 0.260782 0.183583 0.103474 0.0215914 0.681224 0.664315 0.636476 0.598137 0.549951 0.492736 0.427433 0.355157 0.277088 0.194544 0.108902 -0.545815 -0.0490469 -0.119262 -0.187348 -0.252172 -0.312688 -0.367881 -0.416888 -0.458896 -0.493267 -0.51944 -0.537028 -0.587018 -0.0544658 -0.129846 -0.202938 -0.272506 -0.337432 -0.396648 -0.449184 -0.494211 -0.531003 -0.558989 -0.577741 -0.629777 -0.060097 -0.140848 -0.219113 -0.293621 -0.363122 -0.426489 -0.482714 -0.530853 -0.570156 -0.600022 -0.619977 -0.67405 -0.0659413 -0.152247 -0.235894 -0.315501 -0.389743 -0.457432 -0.517443 -0.568822 -0.610737 -0.642523 -0.663713 -0.0221667 -0.545218 -0.53498 -0.51527 -0.486476 -0.449172 -0.404023 -0.35188 -0.293653 -0.230417 -0.163284 -0.0934613 -0.0220004 -0.586294 -0.575107 -0.553735 -0.522607 -0.482311 -0.433599 -0.377343 -0.314568 -0.246405 -0.174048 -0.098811 -0.0218164 -0.628826 -0.616644 -0.593547 -0.559999 -0.516618 -0.464187 -0.403696 -0.336211 -0.262932 -0.185187 -0.104336 -0.0216126 -0.67279 -0.659588 -0.63473 -0.598661 -0.552069 -0.495824 -0.430928 -0.358572 -0.280019 -0.196681 -0.110035 0.528832 0.0493281 0.119751 0.187879 0.252505 0.312508 0.366805 0.414479 0.454666 0.486691 0.509963 0.524091 0.571452 0.0550177 0.130876 0.204267 0.27387 0.338487 0.396978 0.448307 0.491594 0.526072 0.551139 0.566348 0.615581 0.0609179 0.142413 0.221228 0.295999 0.365391 0.428197 0.48334 0.529818 0.566836 0.593761 0.610102 0.661206 0.067032 0.154344 0.238789 0.318886 0.393215 0.460505 0.519556 0.569351 0.609009 0.637827 0.655339 -0.0221667 0.524091 0.509963 0.486691 0.454666 0.414479 0.366805 0.312508 0.252505 0.187879 0.119751 0.0493281 -0.0220004 0.566348 0.551139 0.526072 0.491594 0.448307 0.396978 0.338487 0.27387 0.204267 0.130876 0.0550177 -0.0218164 0.610102 0.593761 0.566836 0.529818 0.48334 0.428197 0.365391 0.295999 0.221228 0.142413 0.0609179 -0.0216126 0.655339 0.637827 0.609009 0.569351 0.519556 0.460505 0.393215 0.318886 0.238789 0.154344 0.067032 -0.0934613 -0.163284 -0.230417 -0.293653 -0.35188 -0.404023 -0.449172 -0.486476 -0.51527 -0.53498 -0.545218 -0.098811 -0.174048 -0.246405 -0.314568 -0.377343 -0.433599 -0.482311 -0.522607 -0.553735 -0.575107 -0.586294 -0.104336 -0.185187 -0.262932 -0.336211 -0.403696 -0.464187 -0.516618 -0.559999 -0.593547 -0.616644 -0.628826 -0.110035 -0.196681 -0.280019 -0.358572 -0.430928 -0.495824 -0.552069 -0.598661 -0.63473 -0.659588 -0.67279 
</DataArray>
<DataArray Name="Warping_Z" format="ascii" type="Float64">
0 0 0 0 0 0 0 0 0 0 0 0 0 0 0 0 0 0 0 0 0 0 0 0 0 0 0 0 0 0 0 0 0 0 0 0 0 0 0 0 0 0 0 0 0 0 0 0 0 0 0 0 0 0 0 0 0 0 0 0 0 0 0 0 0 0 0 0 0 0 0 0 0 0 0 0 0 0 0 0 0 0 0 0 0 0 0 0 0 0 0 0 0 0 0 0 0 0 0 0 0 0 0 0 0 0 0 0 0 0 0 0 0 0 0 0 0 0 0 0 0 0 0 0 0 0 0 0 0 0 0 0 0 0 0 0 0 0 0 0 0 0 0 0 0 0 0 0 0 0 0 0 0 0 0 0 0 0 0 0 0 0 0 0 0 0 0 0 0 0 0 0 0 0 0 0 0 0 0 0 0 0 0 0 0 0 0 0 0 0 0 0 0 0 0 0 0 0 0 0 0 0 0 0 0 0 0 0 0 0 0 0 0 0 0 0 0 0 0 0 0 0 0 0 0 0 0 0 0 0 0 0 0 0 0 0 0 0 0 0 0 0 0 0 0 0 0 0 0 0 0 0 0 0 0 0 0 0 0 0 0 0 0 0 0 0 0 0 0 0 0 0 0 0 0 0 0 0 0 0 0 0 0 0 0 0 0 0 0 0 0 0 0 0 0 0 0 0 0 0 0 0 0 0 0 0 0 0 0 0 0 0 0 0 0 0 0 0 0 0 0 0 0 0 0 0 0 0 0 0 0 0 0 0 0 0 0 0 0 0 0 0 0 0 0 0 0 0 0 0 0 0 0 0 0 0 0 0 0 0 0 0 0 0 0 0 0 0 0 0 0 0 0 0 0 0 0 0 0 0 0 0 0 0 
</DataArray>
</PointData>
<CellData>
<DataArray Name="MaterialId" format="ascii" type="Float64">
1 1 1 1 1 1 1 1 1 1 1 1 1 1 1 1 1 1 1 1 1 1 1 1 1 1 1 1 1 1 1 1 1 1 1 1 1 1 1 1 1 1 1 1 1 1 1 1 1 1 1 1 1 1 1 1 1 1 1 1 1 1 1 1 1 1 1 1 1 1 1 1 1 1 1 1 1 1 1 1 1 1 1 1 1 1 1 1 1 1 1 1 1 1 1 1 1 1 1 1 1 1 1 1 1 1 1 1 1 1 1 1 1 1 1 1 1 1 1 1 1 1 1 1 1 1 1 1 1 1 1 1 1 1 1 1 1 1 1 1 1 1 1 1 2 2 2 2 2 2 2 2 2 2 2 2 2 2 2 2 2 2 2 2 2 2 2 2 2 2 2 2 2 2 2 2 2 2 2 2 2 2 2 2 2 2 2 2 2 2 2 2 2 2 2 2 2 2 2 2 2 2 2 2 2 2 2 2 2 2 2 2 2 2 2 2 2 2 2 2 2 2 2 2 2 2 2 2 2 2 2 2 2 2 2 2 2 2 2 2 2 2 2 2 2 2 2 2 2 2 2 2 2 2 2 2 2 2 2 2 2 2 2 2 2 2 2 2 2 2 2 2 2 2 2 2 2 2 2 2 2 2 2 2 2 2 2 2 
</DataArray>
<DataArray Name="FiberAngle" format="ascii" type="Float64">
0 0 0 0 0 0 0 0 0 0 0 0 0 0 0 0 0 0 0 0 0 0 0 0 0 0 0 0 0 0 0 0 0 0 0 0 0 0 0 0 0 0 0 0 0 0 0 0 0 0 0 0 0 0 0 0 0 0 0 0 0 0 0 0 0 0 0 0 0 0 0 0 0 0 0 0 0 0 0 0 0 0 0 0 0 0 0 0 0 0 0 0 0 0 0 0 0 0 0 0 0 0 0 0 0 0 0 0 0 0 0 0 0 0 0 0 0 0 0 0 0 0 0 0 0 0 0 0 0 0 0 0 0 0 0 0 0 0 0 0 0 0 0 0 0 0 0 0 0 0 0 0 0 0 0 0 0 0 0 0 0 0 0 0 0 0 0 0 0 0 0 0 0 0 0 0 0 0 0 0 0 0 0 0 0 0 0 0 0 0 0 0 0 0 0 0 0 0 0 0 0 0 0 0 0 0 0 0 0 0 0 0 0 0 0 0 0 0 0 0 0 0 0 0 0 0 0 0 0 0 0 0 0 0 0 0 0 0 0 0 0 0 0 0 0 0 0 0 0 0 0 0 0 0 0 0 0 0 0 0 0 0 0 0 0 0 0 0 0 0 0 0 0 0 0 0 0 0 0 0 0 0 0 0 0 0 0 0 
</DataArray>
<DataArray Name="Strain_11" format="ascii" type="Float64">
-12.3845 -12.3337 -12.2271 -12.0676 -11.8561 -11.5937 -11.2814 -10.9206 -10.5131 -10.0605 -9.56506 -9.02885 -12.7966 -12.7409 -12.631 -12.4678 -12.2511 -11.9819 -11.6615 -11.291 -10.8723 -10.407 -9.89713 -9.34492 -13.2072 -13.1503 -13.0382 -12.8707 -12.6484 -12.3721 -12.043 -11.6626 -11.2322 -10.7537 -10.229 -9.66034 -8.45417 -7.84368 -7.1999 -6.52578 -5.82413 -5.09788 -4.3504 -3.58443 -2.8036 -2.01091 -1.20993 -0.403865 -8.75262 -8.12279 -7.4582 -6.76155 -6.03606 -5.28467 -4.51046 -3.71709 -2.90774 -2.0859 -1.25509 -0.418969 -9.05006 -8.40068 -7.7149 -6.99579 -6.24633 -5.46963 -4.66921 -3.84831 -3.01073 -2.16011 -1.29975 -0.433885 0.403865 1.20993 2.01091 2.8036 3.58443 4.3504 5.09788 5.82413 6.52578 7.1999 7.84368 8.45417 0.418969 1.25509 2.0859 2.90774 3.71709 4.51046 5.28467 6.03606 6.76155 7.4582 8.12279 8.75262 0.433885 1.29975 2.16011 3.01073 3.84831 4.66921 5.46963 6.24633 6.99579 7.7149 8.40068 9.05006 9.02885 9.56506 10.0605 10.5131 10.9206 11.2814 11.5937 11.8561 12.0676 12.2271 12.3337 12.3845 9.34492 9.89713 10.407 10.8723 11.291 11.6615 11.9819 12.2511 12.4678 12.631 12.7409 12.7966 9.66034 10.229 10.7537 11.2322 11.6626 12.043 12.3721 12.6484 12.8707 13.0382 13.1503 13.2072 12.3084 12.2514 12.1476 11.9916 11.7845 11.5272 11.2207 10.8663 10.4654 10.0196 9.5309 9.00116 12.7939 12.741 12.6318 12.4679 12.2509 11.9812 11.6603 11.2893 10.87 10.4042 9.89381 9.34119 13.2819 13.2276 13.1127 12.9417 12.7149 12.4333 12.0982 11.7112 11.274 10.7885 10.2571 9.68192 8.43255 7.82758 7.18867 6.51868 5.82036 5.09665 4.35092 3.58598 2.80553 2.01268 1.21116 0.404301 8.74855 8.11848 7.45378 6.75713 6.03179 5.28065 4.50682 3.71394 2.90518 2.08401 1.25393 0.418579 9.0656 8.41081 7.72036 6.99741 6.24499 5.46623 4.66461 3.84331 3.00604 2.15632 1.2973 0.433037 -0.404301 -1.21116 -2.01268 -2.80553 -3.58598 -4.35092 -5.09665 -5.82036 -6.51868 -7.18867 -7.82758 -8.43255 -0.418579 -1.25393 -2.08401 -2.90518 -3.71394 -4.50682 -5.28065 -6.03179 -6.75713 -7.45378 -8.11848 -8.74855 -0.433037 -1.2973 -2.15632 -3.00604 -3.84331 -4.66461 -5.46623 -6.24499 -6.99741 -7.72036 -8.41081 -9.0656 -9.00116 -9.5309 -10.0196 -10.4654 -10.8663 -11.2207 -11.5272 -11.7845 -11.9916 -12.1476 -12.2514 -12.3084 -9.34119 -9.89381 -10.4042 -10.87 -11.2893 -11.6603 -11.9812 -12.2509 -12.4679 -12.6318 -12.741 -12.7939 -9.68192 -10.2571 -10.7885 -11.274 -11.7112 -12.0982 -12.4333 -12.7149 -12.9417 -13.1127 -13.2276 -13.2819 
</DataArray>
<DataArray Name="Strain_22" format="ascii" type="Float64">
-12.3377 -12.2847 -12.1795 -12.0234 -11.8158 -11.5579 -11.2508 -10.8956 -10.4937 -10.047 -9.55701 -9.026 -12.7966 -12.7405 -12.6322 -12.4686 -12.2516 -11.9822 -11.6614 -11.2908 -10.8717 -10.4061 -9.89599 -9.3435 -13.2536 -13.1955 -13.083 -12.9121 -12.6862 -12.4055 -12.0715 -11.6858 -11.25 -10.766 -10.236 -9.66246 -8.45597 -7.84945 -7.2089 -6.53708 -5.83691 -5.11126 -4.36335 -3.59636 -2.81359 -2.01853 -1.21465 -0.405477 -8.75099 -8.12102 -7.45629 -6.75971 -6.03416 -5.28285 -4.50892 -3.71563 -2.90657 -2.08507 -1.2546 -0.418783 -9.04775 -8.39459 -7.70582 -6.98447 -6.23369 -5.45655 -4.6564 -3.83674 -3.00098 -2.15261 -1.29516 -0.432304 0.405477 1.21465 2.01853 2.81359 3.59636 4.36335 5.11126 5.83691 6.53708 7.2089 7.84945 8.45597 0.418783 1.2546 2.08507 2.90657 3.71563 4.50892 5.28285 6.03416 6.75971 7.45629 8.12102 8.75099 0.432304 1.29516 2.15261 3.00098 3.83674 4.6564 5.45655 6.23369 6.98447 7.70582 8.39459 9.04775 9.026 9.55701 10.047 10.4937 10.8956 11.2508 11.5579 11.8158 12.0234 12.1795 12.2847 12.3377 9.3435 9.89599 10.4061 10.8717 11.2908 11.6614 11.9822 12.2516 12.4686 12.6322 12.7405 12.7966 9.66246 10.236 10.766 11.25 11.6858 12.0715 12.4055 12.6862 12.9121 13.083 13.1955 13.2536 12.3464 12.3034 12.1956 12.0368 11.8259 11.5643 11.2529 10.8932 10.4868 10.0356 9.5415 9.00679 12.7952 12.7389 12.6289 12.4659 12.2494 11.9805 11.6603 11.2903 10.8718 10.4068 9.89733 9.34537 13.2422 13.1756 13.0643 12.8967 12.6742 12.3977 12.0683 11.6874 11.2565 10.7774 10.252 9.68248 8.43367 7.82479 7.18271 6.51026 5.8104 5.08597 4.3402 3.57616 2.79708 2.00629 1.20713 0.402939 8.75332 8.1237 7.45923 6.76277 6.03723 5.28582 4.51166 3.71804 2.90854 2.08654 1.25551 0.419089 9.07116 8.42061 7.73355 7.01294 6.2619 5.48348 4.68108 3.85829 3.0186 2.16569 1.3032 0.435017 -0.402939 -1.20713 -2.00629 -2.79708 -3.57616 -4.3402 -5.08597 -5.8104 -6.51026 -7.18271 -7.82479 -8.43367 -0.419089 -1.25551 -2.08654 -2.90854 -3.71804 -4.51166 -5.28582 -6.03723 -6.76277 -7.45923 -8.1237 -8.75332 -0.435017 -1.3032 -2.16569 -3.0186 -3.85829 -4.68108 -5.48348 -6.2619 -7.01294 -7.73355 -8.42061 -9.07116 -9.00679 -9.5415 -10.0356 -10.4868 -10.8932 -11.2529 -11.5643 -11.8259 -12.0368 -12.1956 -12.3034 -12.3464 -9.34537 -9.89733 -10.4068 -10.8718 -11.2903 -11.6603 -11.9805 -12.2494 -12.4659 -12.6289 -12.7389 -12.7952 -9.68248 -10.252 -10.7774 -11.2565 -11.6874 -12.0683 -12.3977 -12.6742 -12.8967 -13.0643 -13.1756 -13.2422 
</DataArray>
<DataArray Name="Strain_12" format="ascii" type="Float64">
0.00224157 -0.0110793 -0.0158059 -0.0215873 -0.0268067 -0.031018 -0.0345004 -0.0369525 -0.0383626 -0.0388289 -0.0382953 -0.0368009 -0.0191583 0.00199273 0.000728483 0.000875453 0.00118141 0.00115775 0.001374 0.00143728 0.00127087 0.00129927 0.00106596 0.0009217 0.0168545 0.00864066 0.0150368 0.020508 0.0253337 0.0294927 0.0325878 0.0349443 0.0362943 0.0366551 0.0360787 0.0346598 -0.0345488 -0.0315523 -0.0281165 -0.0242073 -0.0200915 -0.0161269 -0.0121671 -0.00868167 -0.00564466 -0.00323626 -0.00159975 -0.000736732 0.00066529 0.000311379 0.000114363 -0.000318648 -0.000666652 -0.000914713 -0.00126942 -0.00154909 -0.00177061 -0.0019713 -0.00207098 -0.00216157 0.0324379 0.0295732 0.0261306 0.0224335 0.0185689 0.0145668 0.0108795 0.00746089 0.00457158 0.00227535 0.000644354 -0.000142757 -0.000736732 -0.00159975 -0.00323626 -0.00564466 -0.00868167 -0.0121671 -0.0161269 -0.0200915 -0.0242073 -0.0281165 -0.0315523 -0.0345488 -0.00216157 -0.00207098 -0.0019713 -0.00177061 -0.00154909 -0.00126942 -0.000914713 -0.000666652 -0.000318648 0.000114363 0.000311379 0.00066529 -0.000142757 0.000644354 0.00227535 0.00457158 0.00746089 0.0108795 0.0145668 0.0185689 0.0224335 0.0261306 0.0295732 0.0324379 -0.0368009 -0.0382953 -0.0388289 -0.0383626 -0.0369525 -0.0345004 -0.031018 -0.0268067 -0.0215873 -0.0158059 -0.0110793 0.00224157 0.0009217 0.00106596 0.00129927 0.00127087 0.00143728 0.001374 0.00115775 0.00118141 0.000875453 0.000728483 0.00199273 -0.0191583 0.0346598 0.0360787 0.0366551 0.0362943 0.0349443 0.0325878 0.0294927 0.0253337 0.020508 0.0150368 0.00864066 0.0168545 0.00292545 -0.0114136 -0.0149998 -0.0211732 -0.0260271 -0.0303709 -0.0337359 -0.0362755 -0.0378913 -0.0384918 -0.0381978 -0.0370721 -0.0223352 0.00480835 0.00157948 0.00268915 0.00312139 0.00373338 0.00385192 0.00390899 0.00397024 0.00355292 0.00322332 0.00255608 0.0199582 0.00866439 0.0172258 0.0233877 0.0288051 0.0332402 0.0369618 0.039368 0.0407025 0.040946 0.0400724 0.0381391 -0.0351168 -0.0325652 -0.0293932 -0.025979 -0.0223978 -0.0186385 -0.015211 -0.0119564 -0.00921869 -0.0070572 -0.00553383 -0.00478225 0.00182883 0.00105824 -5.83493e-06 -0.000858692 -0.00184166 -0.00288304 -0.00373222 -0.00454735 -0.0052426 -0.00576266 -0.00616159 -0.00632424 0.035326 0.0317405 0.0276248 0.0230061 0.018201 0.0135535 0.00896934 0.00488788 0.00134663 -0.00143584 -0.00331079 -0.00431578 -0.00478225 -0.00553383 -0.0070572 -0.00921869 -0.0119564 -0.015211 -0.0186385 -0.0223978 -0.025979 -0.0293932 -0.0325652 -0.0351168 -0.00632424 -0.00616159 -0.00576266 -0.0052426 -0.00454735 -0.00373222 -0.00288304 -0.00184166 -0.000858692 -5.83493e-06 0.00105824 0.00182883 -0.00431578 -0.00331079 -0.00143584 0.00134663 0.00488788 0.00896934 0.0135535 0.018201 0.0230061 0.0276248 0.0317405 0.035326 -0.0370721 -0.0381978 -0.0384918 -0.0378913 -0.0362755 -0.0337359 -0.0303709 -0.0260271 -0.0211732 -0.0149998 -0.0114136 0.00292545 0.00255608 0.00322332 0.00355292 0.00397024 0.00390899 0.00385192 0.00373338 0.00312139 0.00268915 0.00157948 0.00480835 -0.0223352 0.0381391 0.0400724 0.040946 0.0407025 0.039368 0.0369618 0.0332402 0.0288051 0.0233877 0.0172258 0.00866439 0.0199582 
</DataArray>
<DataArray Name="Strain_13" format="ascii" type="Float64">
0 0 0 0 0 0 0 0 0 0 0 0 0 0 0 0 0 0 0 0 0 0 0 0 0 0 0 0 0 0 0 0 0 0 0 0 0 0 0 0 0 0 0 0 0 0 0 0 0 0 0 0 0 0 0 0 0 0 0 0 0 0 0 0 0 0 0 0 0 0 0 0 0 0 0 0 0 0 0 0 0 0 0 0 0 0 0 0 0 0 0 0 0 0 0 0 0 0 0 0 0 0 0 0 0 0 0 0 0 0 0 0 0 0 0 0 0 0 0 0 0 0 0 0 0 0 0 0 0 0 0 0 0 0 0 0 0 0 0 0 0 0 0 0 0 0 0 0 0 0 0 0 0 0 0 0 0 0 0 0 0 0 0 0 0 0 0 0 0 0 0 0 0 0 0 0 0 0 0 0 0 0 0 0 0 0 0 0 0 0 0 0 0 0 0 0 0 0 0 0 0 0 0 0 0 0 0 0 0 0 0 0 0 0 0 0 0 0 0 0 0 0 0 0 0 0 0 0 0 0 0 0 0 0 0 0 0 0 0 0 0 0 0 0 0 0 0 0 0 0 0 0 0 0 0 0 0 0 0 0 0 0 0 0 0 0 0 0 0 0 0 0 0 0 0 0 0 0 0 0 0 0 0 0 0 0 0 0 
</DataArray>
<DataArray Name="Strain_23" format="ascii" type="Float64">
0 0 0 0 0 0 0 0 0 0 0 0 0 0 0 0 0 0 0 0 0 0 0 0 0 0 0 0 0 0 0 0 0 0 0 0 0 0 0 0 0 0 0 0 0 0 0 0 0 0 0 0 0 0 0 0 0 0 0 0 0 0 0 0 0 0 0 0 0 0 0 0 0 0 0 0 0 0 0 0 0 0 0 0 0 0 0 0 0 0 0 0 0 0 0 0 0 0 0 0 0 0 0 0 0 0 0 0 0 0 0 0 0 0 0 0 0 0 0 0 0 0 0 0 0 0 0 0 0 0 0 0 0 0 0 0 0 0 0 0 0 0 0 0 0 0 0 0 0 0 0 0 0 0 0 0 0 0 0 0 0 0 0 0 0 0 0 0 0 0 0 0 0 0 0 0 0 0 0 0 0 0 0 0 0 0 0 0 0 0 0 0 0 0 0 0 0 0 0 0 0 0 0 0 0 0 0 0 0 0 0 0 0 0 0 0 0 0 0 0 0 0 0 0 0 0 0 0 0 0 0 0 0 0 0 0 0 0 0 0 0 0 0 0 0 0 0 0 0 0 0 0 0 0 0 0 0 0 0 0 0 0 0 0 0 0 0 0 0 0 0 0 0 0 0 0 0 0 0 0 0 0 0 0 0 0 0 0 
</DataArray>
<DataArray Name="Strain_33" format="ascii" type="Float64">
0.0915682 0.0911763 0.090394 0.0892242 0.0876725 0.0857455 0.0834513 0.0807995 0.0778018 0.074471 0.0708215 0.0668688 0.0948982 0.094492 0.093681 0.0924687 0.0908608 0.0888635 0.0864858 0.0837377 0.080631 0.077179 0.0733968 0.0693003 0.0982283 0.0978075 0.096968 0.0957135 0.094049 0.0919815 0.0895202 0.086676 0.0834602 0.079887 0.075972 0.0717317 0.0626292 0.0581217 0.0533652 0.0483802 0.0431882 0.0378112 0.0322725 0.0265952 0.020804 0.0149237 0.00897975 0.0029975 0.0649067 0.0602352 0.0553058 0.0501395 0.0447587 0.0391862 0.0334457 0.027562 0.0215605 0.0154668 0.0093065 0.0031065 0.0671843 0.0623487 0.0572462 0.0518988 0.0463293 0.0405613 0.0346192 0.0285292 0.0223173 0.0160097 0.00963325 0.0032155 -0.0029975 -0.00897975 -0.0149237 -0.020804 -0.0265952 -0.0322725 -0.0378112 -0.0431882 -0.0483802 -0.0533653 -0.0581217 -0.0626292 -0.0031065 -0.0093065 -0.0154668 -0.0215605 -0.027562 -0.0334457 -0.0391862 -0.0447587 -0.0501395 -0.0553058 -0.0602353 -0.0649067 -0.0032155 -0.00963325 -0.0160097 -0.0223173 -0.0285293 -0.0346192 -0.0405612 -0.0463293 -0.0518988 -0.0572462 -0.0623487 -0.0671843 -0.0668688 -0.0708215 -0.074471 -0.0778018 -0.0807995 -0.0834513 -0.0857455 -0.0876725 -0.0892242 -0.090394 -0.0911762 -0.0915682 -0.0693003 -0.0733967 -0.077179 -0.080631 -0.0837377 -0.0864858 -0.0888635 -0.0908607 -0.0924688 -0.093681 -0.094492 -0.0948983 -0.0717317 -0.075972 -0.079887 -0.0834602 -0.086676 -0.0895203 -0.0919815 -0.094049 -0.0957135 -0.096968 -0.0978075 -0.0982283 -0.0915682 -0.0911763 -0.090394 -0.0892242 -0.0876725 -0.0857455 -0.0834513 -0.0807995 -0.0778018 -0.074471 -0.0708215 -0.0668688 -0.0948982 -0.094492 -0.093681 -0.0924687 -0.0908608 -0.0888635 -0.0864858 -0.0837377 -0.080631 -0.077179 -0.0733968 -0.0693003 -0.0982283 -0.0978075 -0.096968 -0.0957135 -0.094049 -0.0919815 -0.0895202 -0.086676 -0.0834602 -0.079887 -0.075972 -0.0717317 -0.0626292 -0.0581217 -0.0533652 -0.0483802 -0.0431882 -0.0378112 -0.0322725 -0.0265952 -0.020804 -0.0149237 -0.00897975 -0.0029975 -0.0649067 -0.0602352 -0.0553058 -0.0501395 -0.0447587 -0.0391862 -0.0334457 -0.027562 -0.0215605 -0.0154668 -0.0093065 -0.0031065 -0.0671843 -0.0623487 -0.0572462 -0.0518988 -0.0463293 -0.0405613 -0.0346192 -0.0285292 -0.0223173 -0.0160097 -0.00963325 -0.0032155 0.0029975 0.00897975 0.0149237 0.020804 0.0265952 0.0322725 0.0378112 0.0431882 0.0483802 0.0533653 0.0581217 0.0626292 0.0031065 0.0093065 0.0154668 0.0215605 0.027562 0.0334457 0.0391862 0.0447587 0.0501395 0.0553058 0.0602353 0.0649067 0.0032155 0.00963325 0.0160097 0.0223173 0.0285293 0.0346192 0.0405612 0.0463293 0.0518988 0.0572462 0.0623487 0.0671843 0.0668688 0.0708215 0.074471 0.0778018 0.0807995 0.0834513 0.0857455 0.0876725 0.0892242 0.090394 0.0911762 0.0915682 0.0693003 0.0733967 0.077179 0.080631 0.0837377 0.0864858 0.0888635 0.0908607 0.0924688 0.093681 0.094492 0.0948983 0.0717317 0.075972 0.079887 0.0834602 0.086676 0.0895203 0.0919815 0.094049 0.0957135 0.096968 0.0978075 0.0982283 
</DataArray>
<DataArray Name="Stress_11" format="ascii" type="Float64">
-1716.23 -1709.12 -1694.38 -1672.34 -1643.13 -1606.86 -1563.69 -1513.81 -1457.45 -1394.85 -1326.29 -1252.07 -1774.68 -1766.93 -1751.74 -1729.09 -1699.03 -1661.69 -1617.24 -1565.87 -1507.79 -1443.25 -1372.53 -1295.94 -1832.9 -1824.97 -1809.41 -1786.09 -1755.15 -1716.72 -1670.95 -1618.04 -1558.2 -1491.69 -1418.78 -1339.78 -1172.5 -1087.95 -998.753 -905.328 -808.063 -707.36 -603.685 -497.43 -389.089 -279.09 -167.928 -56.0539 -1213.79 -1126.44 -1034.27 -937.66 -837.046 -732.843 -625.481 -515.456 -403.221 -289.255 -174.046 -58.0987 -1255.02 -1164.86 -1069.67 -969.881 -865.908 -758.181 -647.184 -533.374 -417.266 -299.362 -180.126 -60.1286 56.0539 167.928 279.09 389.089 497.43 603.685 707.36 808.063 905.328 998.753 1087.95 1172.5 58.0987 174.046 289.255 403.221 515.456 625.481 732.843 837.046 937.66 1034.27 1126.44 1213.79 60.1286 180.126 299.362 417.266 533.374 647.184 758.181 865.908 969.881 1069.67 1164.86 1255.02 1252.07 1326.29 1394.85 1457.45 1513.81 1563.69 1606.86 1643.13 1672.34 1694.38 1709.12 1716.23 1295.94 1372.53 1443.25 1507.79 1565.87 1617.24 1661.69 1699.03 1729.09 1751.74 1766.93 1774.68 1339.78 1418.78 1491.69 1558.2 1618.04 1670.95 1716.72 1755.15 1786.09 1809.41 1824.97 1832.9 170.801 170.05 168.599 166.428 163.545 159.965 155.701 150.771 145.196 138.999 132.206 124.846 177.434 176.69 175.173 172.903 169.895 166.157 161.708 156.566 150.753 144.296 137.22 129.558 184.088 183.301 181.717 179.355 176.221 172.33 167.699 162.349 156.303 149.588 142.234 134.273 116.948 108.547 99.6778 90.3794 80.6907 70.6521 60.31 49.7041 38.8844 27.8947 16.7855 5.60319 121.341 112.604 103.386 93.7254 83.6656 73.2478 62.5152 51.5173 40.2992 28.9086 17.3943 5.80639 125.74 116.671 107.105 97.0853 86.6542 75.8551 64.7358 53.3417 41.7235 29.9304 18.0077 6.01097 -5.60319 -16.7855 -27.8947 -38.8844 -49.7041 -60.31 -70.6521 -80.6907 -90.3794 -99.6778 -108.547 -116.948 -5.80639 -17.3943 -28.9086 -40.2992 -51.5173 -62.5152 -73.2478 -83.6656 -93.7254 -103.386 -112.604 -121.341 -6.01097 -18.0077 -29.9304 -41.7235 -53.3417 -64.7358 -75.8551 -86.6542 -97.0853 -107.105 -116.671 -125.74 -124.846 -132.206 -138.999 -145.196 -150.771 -155.701 -159.965 -163.545 -166.428 -168.599 -170.05 -170.801 -129.558 -137.22 -144.296 -150.753 -156.566 -161.708 -166.157 -169.895 -172.903 -175.173 -176.69 -177.434 -134.273 -142.234 -149.588 -156.303 -162.349 -167.699 -172.33 -176.221 -179.355 -181.717 -183.301 -184.088 
</DataArray>
<DataArray Name="Stress_22" format="ascii" type="Float64">
-1712.32 -1705.04 -1690.41 -1668.66 -1639.77 -1603.88 -1561.14 -1511.72 -1455.84 -1393.72 -1325.62 -1251.83 -1774.68 -1766.9 -1751.84 -1729.15 -1699.08 -1661.72 -1617.24 -1565.85 -1507.73 -1443.17 -1372.44 -1295.82 -1836.76 -1828.74 -1813.14 -1789.54 -1758.31 -1719.5 -1673.32 -1619.98 -1559.68 -1492.71 -1419.36 -1339.96 -1172.65 -1088.43 -999.504 -906.27 -809.128 -708.475 -604.765 -498.424 -389.921 -279.725 -168.321 -56.1882 -1213.66 -1126.3 -1034.11 -937.506 -836.887 -732.691 -625.353 -515.335 -403.123 -289.186 -174.005 -58.0832 -1254.83 -1164.35 -1068.91 -968.939 -864.855 -757.091 -646.116 -532.41 -416.453 -298.738 -179.743 -59.9968 56.1882 168.321 279.725 389.921 498.424 604.765 708.475 809.128 906.27 999.504 1088.43 1172.65 58.0832 174.005 289.186 403.123 515.335 625.353 732.691 836.887 937.506 1034.11 1126.3 1213.66 59.9968 179.743 298.738 416.453 532.41 646.116 757.091 864.855 968.939 1068.91 1164.35 1254.83 1251.83 1325.62 1393.72 1455.84 1511.72 1561.14 1603.88 1639.77 1668.66 1690.41 1705.04 1712.32 1295.82 1372.44 1443.17 1507.73 1565.85 1617.24 1661.72 1699.08 1729.15 1751.84 1766.9 1774.68 1339.96 1419.36 1492.71 1559.68 1619.98 1673.32 1719.5 1758.31 1789.54 1813.14 1828.74 1836.76 171.118 170.483 168.999 166.804 163.891 160.274 155.969 150.995 145.375 139.132 132.295 124.893 177.444 176.672 175.149 172.886 169.882 166.151 161.708 156.574 150.768 144.318 137.249 129.593 183.757 182.868 181.314 178.98 175.882 172.033 167.45 162.151 156.158 149.495 142.192 134.278 116.957 108.524 99.6281 90.3093 80.6077 70.5631 60.2207 49.6223 38.814 27.8414 16.7519 5.59183 121.38 112.647 103.432 93.7724 83.711 73.291 62.5556 51.5515 40.3272 28.9297 17.4074 5.81063 125.786 116.753 107.215 97.2147 86.7951 75.9988 64.8731 53.4665 41.8282 30.0085 18.0568 6.02747 -5.59183 -16.7519 -27.8414 -38.814 -49.6223 -60.2207 -70.5631 -80.6077 -90.3093 -99.6281 -108.524 -116.957 -5.81063 -17.4074 -28.9297 -40.3272 -51.5515 -62.5556 -73.291 -83.711 -93.7724 -103.432 -112.647 -121.38 -6.02747 -18.0568 -30.0085 -41.8282 -53.4665 -64.8731 -75.9988 -86.7951 -97.2147 -107.215 -116.753 -125.786 -124.893 -132.295 -139.132 -145.375 -150.995 -155.969 -160.274 -163.891 -166.804 -168.999 -170.483 -171.118 -129.593 -137.249 -144.318 -150.768 -156.574 -161.708 -166.151 -169.882 -172.886 -175.149 -176.672 -177.444 -134.278 -142.192 -149.495 -156.158 -162.151 -167.45 -172.033 -175.882 -178.98 -181.314 -182.868 -183.757 
</DataArray>
<DataArray Name="Stress_12" format="ascii" type="Float64">