<?xml version="1.0"?>
<VTKFile byte_order="LittleEndian" type="UnstructuredGrid" version="0.1">
<UnstructuredGrid>
<Piece NumberOfCells="288" NumberOfPoints="384">
<PointData>
<DataArray Name="Warping_X" format="ascii" type="Float64">
-0 -0 0 0 0 0 0 0 0 0 0 0 0 0 0 0 0 0 0 0 0 0 0 0 0 0 0 0 0 0 0 0 0 0 0 0 0 0 0 0 0 0 0 0 0 0 0 0 0 0 0 0 0 0 0 0 0 0 0 0 0 0 0 0 0 0 0 0 0 0 0 0 0 0 0 0 0 0 0 0 0 0 0 0 0 0 0 0 0 0 0 0 0 0 0 0 0 0 0 0 -0 0 0 0 0 0 0 0 0 0 0 0 0 0 0 0 0 0 0 0 0 0 0 0 0 0 0 0 0 0 0 0 0 0 0 0 0 0 0 0 0 0 0 0 0 0 0 0 0 0 0 0 0 0 0 0 0 0 0 0 0 0 0 0 0 0 0 0 0 0 0 0 0 0 0 0 0 0 0 0 0 0 0 0 0 0 0 0 0 0 0 0 0 0 0 0 -0 -0 0 0 0 0 0 0 0 0 0 0 0 0 0 0 0 0 0 0 0 0 0 0 0 0 0 0 0 0 0 0 0 0 0 0 0 0 0 0 0 0 0 0 0 0 0 0 0 0 0 0 0 0 0 0 0 0 0 0 0 0 0 0 0 0 0 0 0 0 0 0 0 0 0 0 0 0 0 0 0 0 0 0 0 0 0 0 0 0 0 0 0 0 0 0 -0 0 0 0 0 0 0 0 0 0 0 0 0 0 0 0 0 0 0 0 0 0 0 0 0 0 0 0 0 0 0 0 0 0 0 0 0 0 0 0 0 0 0 0 0 0 0 0 0 0 0 0 0 0 0 0 0 0 0 0 0 0 0 0 0 0 0 0 0 0 0 0 0 0 0 0 0 0 0 0 0 0 0 0 0 0 0 0 0 0 0 0 
</DataArray>
<DataArray Name="Warping_Y" format="ascii" type="Float64">
0 -0 0 0 0 0 0 0 0 0 0 0 0 0 -0 0 0 0 0 0 0 0 0 0 0 0 0 -0 0 0 0 0 0 0 0 0 0 0 0 0 0 0 0 0 0 0 0 0 0 0 0 0 -0 0 0 0 0 0 0 0 0 0 0 0 0 0 0 0 0 0 0 0 0 0 0 0 0 0 0 0 0 0 0 0 0 0 0 0 0 0 0 0 0 0 0 0 0 0 0 0 -0 0 0 0 0 0 0 0 0 0 0 0 0 0 0 0 0 0 0 0 0 0 0 0 0 0 0 0 0 0 0 0 0 0 0 0 0 0 0 0 0 0 0 0 0 0 0 0 0 0 0 0 0 0 0 0 0 0 0 0 0 0 0 0 0 0 0 0 0 0 0 0 0 0 0 0 0 0 0 0 0 0 0 0 0 0 0 0 0 0 0 0 0 0 0 0 -0 0 0 0 0 0 0 0 0 0 0 0 0 0 0 0 0 0 0 0 0 0 0 0 0 0 0 0 0 0 0 0 0 0 0 0 0 0 0 0 0 0 0 0 0 0 0 0 -0 0 0 0 0 0 0 0 0 0 0 0 0 0 0 0 0 0 0 0 0 0 0 0 0 0 0 0 0 0 0 0 0 0 0 0 0 0 0 0 0 0 0 0 0 0 0 0 -0 0 0 0 0 0 0 0 0 0 0 0 0 0 0 0 0 0 0 0 0 0 0 0 0 0 0 0 0 0 0 0 0 0 0 0 0 0 0 0 0 0 0 0 0 0 0 0 0 0 0 0 0 0 0 0 0 0 0 0 0 0 0 0 0 0 0 0 0 0 0 0 0 0 0 0 0 0 0 0 0 0 0 0 0 0 0 0 0 0 0 0 
</DataArray>
<DataArray Name="Warping_Z" format="ascii" type="Float64">
0 0 0 0 0 0 0 0 0 0 0 0 0 0 0 0 0 0 0 0 0 0 0 0 0 0 0 0 0 0 0 0 0 0 0 0 0 0 0 0 0 0 0 0 0 0 0 0 0 0 0 0 0 0 0 0 0 0 0 0 0 0 0 0 0 0 0 0 0 0 0 0 0 0 0 0 0 0 0 0 0 0 0 0 0 0 0 0 0 0 0 0 0 0 0 0 0 0 0 0 0 0 0 0 0 0 0 0 0 0 0 0 0 0 0 0 0 0 0 0 0 0 0 0 0 0 0 0 0 0 0 0 0 0 0 0 0 0 0 0 0 0 0 0 0 0 0 0 0 0 0 0 0 0 0 0 0 0 0 0 0 0 0 0 0 0 0 0 0 0 0 0 0 0 0 0 0 0 0 0 0 0 0 0 0 0 0 0 0 0 0 0 0 0 0 0 0 0 0 0 0 0 0 0 0 0 0 0 0 0 0 0 0 0 0 0 0 0 0 0 0 0 0 0 0 0 0 0 0 0 0 0 0 0 0 0 0 0 0 0 0 0 0 0 0 0 0 0 0 0 0 0 0 0 0 0 0 0 0 0 0 0 0 0 0 0 0 0 0 0 0 0 0 0 0 0 0 0 0 0 0 0 0 0 0 0 0 0 0 0 0 0 0 0 0 0 0 0 0 0 0 0 0 0 0 0 0 0 0 0 0 0 0 0 0 0 0 0 0 0 0 0 0 0 0 0 0 0 0 0 0 0 0 0 0 0 0 0 0 0 0 0 0 0 0 0 0 0 0 0 0 0 0 0 0 0 0 0 0 0 0 0 0 0 0 0 0 0 0 0 0 0 0 0 0 0 0 0 0 0 0 0 0 0 
</DataArray>
</PointData>
<CellData>
<DataArray Name="MaterialId" format="ascii" type="Float64">
1 1 1 1 1 1 1 1 1 1 1 1 1 1 1 1 1 1 1 1 1 1 1 1 1 1 1 1 1 1 1 1 1 1 1 1 1 1 1 1 1 1 1 1 1 1 1 1 1 1 1 1 1 1 1 1 1 1 1 1 1 1 1 1 1 1 1 1 1 1 1 1 1 1 1 1 1 1 1 1 1 1 1 1 1 1 1 1 1 1 1 1 1 1 1 1 1 1 1 1 1 1 1 1 1 1 1 1 1 1 1 1 1 1 1 1 1 1 1 1 1 1 1 1 1 1 1 1 1 1 1 1 1 1 1 1 1 1 1 1 1 1 1 1 2 2 2 2 2 2 2 2 2 2 2 2 2 2 2 2 2 2 2 2 2 2 2 2 2 2 2 2 2 2 2 2 2 2 2 2 2 2 2 2 2 2 2 2 2 2 2 2 2 2 2 2 2 2 2 2 2 2 2 2 2 2 2 2 2 2 2 2 2 2 2 2 2 2 2 2 2 2 2 2 2 2 2 2 2 2 2 2 2 2 2 2 2 2 2 2 2 2 2 2 2 2 2 2 2 2 2 2 2 2 2 2 2 2 2 2 2 2 2 2 2 2 2 2 2 2 2 2 2 2 2 2 2 2 2 2 2 2 2 2 2 2 2 2 
</DataArray>
<DataArray Name="FiberAngle" format="ascii" type="Float64">
0 0 0 0 0 0 0 0 0 0 0 0 0 0 0 0 0 0 0 0 0 0 0 0 0 0 0 0 0 0 0 0 0 0 0 0 0 0 0 0 0 0 0 0 0 0 0 0 0 0 0 0 0 0 0 0 0 0 0 0 0 0 0 0 0 0 0 0 0 0 0 0 0 0 0 0 0 0 0 0 0 0 0 0 0 0 0 0 0 0 0 0 0 0 0 0 0 0 0 0 0 0 0 0 0 0 0 0 0 0 0 0 0 0 0 0 0 0 0 0 0 0 0 0 0 0 0 0 0 0 0 0 0 0 0 0 0 0 0 0 0 0 0 0 0 0 0 0 0 0 0 0 0 0 0 0 0 0 0 0 0 0 0 0 0 0 0 0 0 0 0 0 0 0 0 0 0 0 0 0 0 0 0 0 0 0 0 0 0 0 0 0 0 0 0 0 0 0 0 0 0 0 0 0 0 0 0 0 0 0 0 0 0 0 0 0 0 0 0 0 0 0 0 0 0 0 0 0 0 0 0 0 0 0 0 0 0 0 0 0 0 0 0 0 0 0 0 0 0 0 0 0 0 0 0 0 0 0 0 0 0 0 0 0 0 0 0 0 0 0 0 0 0 0 0 0 0 0 0 0 0 0 0 0 0 0 0 0 
</DataArray>
<DataArray Name="Strain_11" format="ascii" type="Float64">
0 0 0 0 0 0 0 0 0 0 0 0 0 0 0 0 0 0 0 0 0 0 0 0 0 0 0 0 0 0 0 0 0 0 0 0 0 0 0 0 0 0 0 0 0 0 0 0 0 0 0 0 0 0 0 0 0 0 0 0 0 0 0 0 0 0 0 0 0 0 0 0 0 0 0 0 0 0 0 0 0 0 0 0 0 0 0 0 0 0 0 0 0 0 0 0 0 0 0 0 0 0 0 0 0 0 0 0 0 0 0 0 0 0 0 0 0 0 0 0 0 0 0 0 0 0 0 0 0 0 0 0 0 0 0 0 0 0 0 0 0 0 0 0 0 0 0 0 0 0 0 0 0 0 0 0 0 0 0 0 0 0 0 0 0 0 0 0 0 0 0 0 0 0 0 0 0 0 0 0 0 0 0 0 0 0 0 0 0 0 0 0 0 0 0 0 0 0 0 0 0 0 0 0 0 0 0 0 0 0 0 0 0 0 0 0 0 0 0 0 0 0 0 0 0 0 0 0 0 0 0 0 0 0 0 0 0 0 0 0 0 0 0 0 0 0 0 0 0 0 0 0 0 0 0 0 0 0 0 0 0 0 0 0 0 0 0 0 0 0 0 0 0 0 0 0 0 0 0 0 0 0 0 0 0 0 0 0 
</DataArray>
<DataArray Name="Strain_22" format="ascii" type="Float64">
0 0 0 0 0 0 0 0 0 0 0 0 0 0 0 0 0 0 0 0 0 0 0 0 0 0 0 0 0 0 0 0 0 0 0 0 0 0 0 0 0 0 0 0 0 0 0 0 0 0 0 0 0 0 0 0 0 0 0 0 0 0 0 0 0 0 0 0 0 0 0 0 0 0 0 0 0 0 0 0 0 0 0 0 0 0 0 0 0 0 0 0 0 0 0 0 0 0 0 0 0 0 0 0 0 0 0 0 0 0 0 0 0 0 0 0 0 0 0 0 0 0 0 0 0 0 0 0 0 0 0 0 0 0 0 0 0 0 0 0 0 0 0 0 0 0 0 0 0 0 0 0 0 0 0 0 0 0 0 0 0 0 0 0 0 0 0 0 0 0 0 0 0 0 0 0 0 0 0 0 0 0 0 0 0 0 0 0 0 0 0 0 0 0 0 0 0 0 0 0 0 0 0 0 0 0 0 0 0 0 0 0 0 0 0 0 0 0 0 0 0 0 0 0 0 0 0 0 0 0 0 0 0 0 0 0 0 0 0 0 0 0 0 0 0 0 0 0 0 0 0 0 0 0 0 0 0 0 0 0 0 0 0 0 0 0 0 0 0 0 0 0 0 0 0 0 0 0 0 0 0 0 0 0 0 0 0 0 
</DataArray>
<DataArray Name="Strain_12" format="ascii" type="Float64">
0 0 0 0 0 0 0 0 0 0 0 0 0 0 0 0 0 0 0 0 0 0 0 0 0 0 0 0 0 0 0 0 0 0 0 0 0 0 0 0 0 0 0 0 0 0 0 0 0 0 0 0 0 0 0 0 0 0 0 0 0 0 0 0 0 0 0 0 0 0 0 0 0 0 0 0 0 0 0 0 0 0 0 0 0 0 0 0 0 0 0 0 0 0 0 0 0 0 0 0 0 0 0 0 0 0 0 0 0 0 0 0 0 0 0 0 0 0 0 0 0 0 0 0 0 0 0 0 0 0 0 0 0 0 0 0 0 0 0 0 0 0 0 0 0 0 0 0 0 0 0 0 0 0 0 0 0 0 0 0 0 0 0 0 0 0 0 0 0 0 0 0 0 0 0 0 0 0 0 0 0 0 0 0 0 0 0 0 0 0 0 0 0 0 0 0 0 0 0 0 0 0 0 0 0 0 0 0 0 0 0 0 0 0 0 0 0 0 0 0 0 0 0 0 0 0 0 0 0 0 0 0 0 0 0 0 0 0 0 0 0 0 0 0 0 0 0 0 0 0 0 0 0 0 0 0 0 0 0 0 0 0 0 0 0 0 0 0 0 0 0 0 0 0 0 0 0 0 0 0 0 0 0 0 0 0 0 0 
</DataArray>
<DataArray Name="Strain_13" format="ascii" type="Float64">
19.2288 20.6128 21.4291 22.0917 22.6151 22.9878 23.1988 23.2379 23.0974 22.7726 22.2585 21.5547 19.0717 19.9313 20.6921 21.3326 21.8402 22.2025 22.4082 22.4479 22.3141 22.0013 21.5062 20.8272 18.933 19.3034 20.0141 20.6374 21.1334 21.4887 21.6922 21.7344 21.6084 21.3088 20.8318 20.1766 20.6625 19.586 18.3307 16.9065 15.3244 13.5952 11.736 9.76274 7.69481 5.55073 3.35241 1.12134 19.9661 18.9267 17.7148 16.3388 14.8095 13.1395 11.3426 9.43587 7.43703 5.36504 3.24035 1.08377 19.3444 18.3393 17.1665 15.8341 14.3529 12.735 10.9943 9.14646 7.20887 5.20083 3.14129 1.0507 -1.12134 -3.35241 -5.55073 -7.69481 -9.76274 -11.736 -13.5952 -15.3244 -16.9065 -18.3307 -19.586 -20.6625 -1.08377 -3.24035 -5.36504 -7.43703 -9.43587 -11.3426 -13.1395 -14.8095 -16.3388 -17.7148 -18.9267 -19.9661 -1.0507 -3.14129 -5.20083 -7.20887 -9.14646 -10.9943 -12.735 -14.3529 -15.8341 -17.1665 -18.3393 -19.3444 -21.5547 -22.2585 -22.7726 -23.0974 -23.2379 -23.1988 -22.9878 -22.6151 -22.0917 -21.4291 -20.6128 -19.2288 -20.8272 -21.5062 -22.0013 -22.3141 -22.4479 -22.4082 -22.2025 -21.8402 -21.3326 -20.6921 -19.9313 -19.0717 -20.1766 -20.8318 -21.3088 -21.6084 -21.7344 -21.6922 -21.4887 -21.1334 -20.6374 -20.0141 -19.3034 -18.933 19.2372 20.6199 21.4373 22.0966 22.6198 22.9933 23.2034 23.2399 23.0962 22.7749 22.261 21.555 19.0708 19.9313 20.6922 21.3313 21.8396 22.2036 22.4098 22.4478 22.3128 22.0025 21.5085 20.8281 18.9227 19.2965 20.0078 20.6285 21.1273 21.4855 21.6913 21.7322 21.6046 21.3095 20.8347 20.1775 20.662 19.5851 18.3277 16.9036 15.3246 13.5946 11.7348 9.7608 7.6935 5.54911 3.35089 1.12146 19.966 18.9268 17.7151 16.3387 14.8099 13.1405 11.3436 9.43636 7.43646 5.36395 3.24002 1.08399 19.3437 18.3402 17.1701 15.8357 14.3534 12.7374 10.9976 9.14939 7.20871 5.19951 3.14214 1.05173 -1.12146 -3.35089 -5.54911 -7.6935 -9.7608 -11.7348 -13.5946 -15.3246 -16.9036 -18.3277 -19.5851 -20.662 -1.08399 -3.24002 -5.36395 -7.43646 -9.43636 -11.3436 -13.1405 -14.8099 -16.3387 -17.7151 -18.9268 -19.966 -1.05173 -3.14214 -5.19951 -7.20871 -9.14939 -10.9976 -12.7374 -14.3534 -15.8357 -17.1701 -18.3402 -19.3437 -21.555 -22.261 -22.7749 -23.0962 -23.2399 -23.2034 -22.9933 -22.6198 -22.0966 -21.4373 -20.6199 -19.2372 -20.8281 -21.5085 -22.0025 -22.3128 -22.4478 -22.4098 -22.2036 -21.8396 -21.3313 -20.6922 -19.9313 -19.0708 -20.1775 -20.8347 -21.3095 -21.6046 -21.7322 -21.6913 -21.4855 -21.1273 -20.6285 -20.0078 -19.2965 -18.9227 
</DataArray>
<DataArray Name="Strain_23" format="ascii" type="Float64">
-35.5419 -34.5282 -33.0405 -31.4297 -29.7207 -27.9286 -26.0696 -24.1595 -22.2179 -20.2627 -18.3138 -16.3927 -35.2286 -34.5419 -33.1381 -31.5819 -29.9314 -28.2002 -26.4032 -24.5577 -22.6808 -20.7905 -18.907 -17.0497 -35.5978 -34.6672 -33.2758 -31.7714 -30.1726 -28.4954 -26.7547 -24.9658 -23.1462 -21.3137 -19.487 -17.6859 -14.5195 -12.7148 -10.9993 -9.39305 -7.91216 -6.57543 -5.39901 -4.39654 -3.57971 -2.95761 -2.53967 -2.3289 -15.2387 -13.4939 -11.8353 -10.2816 -8.84982 -7.55744 -6.41974 -5.45029 -4.66031 -4.05908 -3.65445 -3.45091 -15.9292 -14.2365 -12.6273 -11.1199 -9.73071 -8.47633 -7.3724 -6.43175 -5.6653 -5.08136 -4.68843 -4.49131 -2.3289 -2.53967 -2.95761 -3.57971 -4.39654 -5.39901 -6.57543 -7.91216 -9.39305 -10.9993 -12.7148 -14.5195 -3.45091 -3.65445 -4.05908 -4.66031 -5.45029 -6.41974 -7.55744 -8.84982 -10.2816 -11.8353 -13.4939 -15.2387 -4.49131 -4.68843 -5.08136 -5.6653 -6.43175 -7.3724 -8.47633 -9.73071 -11.1199 -12.6273 -14.2365 -15.9292 -16.3927 -18.3138 -20.2627 -22.2179 -24.1595 -26.0696 -27.9286 -29.7207 -31.4297 -33.0405 -34.5282 -35.5419 -17.0497 -18.907 -20.7905 -22.6808 -24.5577 -26.4032 -28.2002 -29.9314 -31.5819 -33.1381 -34.5419 -35.2286 -17.6859 -19.487 -21.3137 -23.1462 -24.9658 -26.7547 -28.4954 -30.1726 -31.7714 -33.2758 -34.6672 -35.5978 -35.5415 -34.5288 -33.0406 -31.4289 -29.7201 -27.9273 -26.0676 -24.1568 -22.2186 -20.2641 -18.3139 -16.3932 -35.2287 -34.5431 -33.1401 -31.5834 -29.9318 -28.2001 -26.4032 -24.5582 -22.6818 -20.7912 -18.9077 -17.0506 -35.5975 -34.6681 -33.2796 -31.7746 -30.1731 -28.4957 -26.7559 -24.9687 -23.1477 -21.3126 -19.4878 -17.6874 -14.52 -12.7144 -11.0002 -9.39872 -7.91587 -6.57797 -5.40208 -4.40169 -3.58605 -2.96191 -2.54624 -2.33492 -15.2384 -13.4922 -11.8347 -10.2833 -8.85028 -7.55615 -6.41887 -5.45098 -4.66159 -4.05882 -3.65423 -3.45158 -15.9281 -14.2323 -12.624 -11.1198 -9.72756 -8.47041 -7.36736 -6.42811 -5.6632 -5.0753 -4.68165 -4.48711 -2.33492 -2.54624 -2.96191 -3.58605 -4.40169 -5.40208 -6.57797 -7.91587 -9.39872 -11.0002 -12.7144 -14.52 -3.45158 -3.65423 -4.05882 -4.66159 -5.45098 -6.41887 -7.55615 -8.85028 -10.2833 -11.8347 -13.4922 -15.2384 -4.48711 -4.68165 -5.0753 -5.6632 -6.42811 -7.36736 -8.47041 -9.72756 -11.1198 -12.624 -14.2323 -15.9281 -16.3932 -18.3139 -20.2641 -22.2186 -24.1568 -26.0676 -27.9273 -29.7201 -31.4289 -33.0406 -34.5288 -35.5415 -17.0506 -18.9077 -20.7912 -22.6818 -24.5582 -26.4032 -28.2001 -29.9318 -31.5834 -33.1401 -34.5431 -35.2287 -17.6874 -19.4878 -21.3126 -23.1477 -24.9687 -26.7559 -28.4957 -30.1731 -31.7746 -33.2796 -34.6681 -35.5975 
</DataArray>
<DataArray Name="Strain_33" format="ascii" type="Float64">
0 0 0 0 0 0 0 0 0 0 0 0 0 0 0 0 0 0 0 0 0 0 0 0 0 0 0 0 0 0 0 0 0 0 0 0 0 0 0 0 0 0 0 0 0 0 0 0 0 0 0 0 0 0 0 0 0 0 0 0 0 0 0 0 0 0 0 0 0 0 0 0 0 0 0 0 0 0 0 0 0 0 0 0 0 0 0 0 0 0 0 0 0 0 0 0 0 0 0 0 0 0 0 0 0 0 0 0 0 0 0 0 0 0 0 0 0 0 0 0 0 0 0 0 0 0 0 0 0 0 0 0 0 0 0 0 0 0 0 0 0 0 0 0 0 0 0 0 0 0 0 0 0 0 0 0 0 0 0 0 0 0 0 0 0 0 0 0 0 0 0 0 0 0 0 0 0 0 0 0 0 0 0 0 0 0 0 0 0 0 0 0 0 0 0 0 0 0 0 0 0 0 0 0 0 0 0 0 0 0 0 0 0 0 0 0 0 0 0 0 0 0 0 0 0 0 0 0 0 0 0 0 0 0 0 0 0 0 0 0 0 0 0 0 0 0 0 0 0 0 0 0 0 0 0 0 0 0 0 0 0 0 0 0 0 0 0 0 0 0 0 0 0 0 0 0 0 0 0 0 0 0 0 0 0 0 0 0 
</DataArray>
<DataArray Name="Stress_11" format="ascii" type="Float64">
0 0 0 0 0 0 0 0 0 0 0 0 0 0 0 0 0 0 0 0 0 0 0 0 0 0 0 0 0 0 0 0 0 0 0 0 0 0 0 0 0 0 0 0 0 0 0 0 0 0 0 0 0 0 0 0 0 0 0 0 0 0 0 0 0 0 0 0 0 0 0 0 0 0 0 0 0 0 0 0 0 0 0 0 0 0 0 0 0 0 0 0 0 0 0 0 0 0 0 0 0 0 0 0 0 0 0 0 0 0 0 0 0 0 0 0 0 0 0 0 0 0 0 0 0 0 0 0 0 0 0 0 0 0 0 0 0 0 0 0 0 0 0 0 0 0 0 0 0 0 0 0 0 0 0 0 0 0 0 0 0 0 0 0 0 0 0 0 0 0 0 0 0 0 0 0 0 0 0 0 0 0 0 0 0 0 0 0 0 0 0 0 0 0 0 0 0 0 0 0 0 0 0 0 0 0 0 0 0 0 0 0 0 0 0 0 0 0 0 0 0 0 0 0 0 0 0 0 0 0 0 0 0 0 0 0 0 0 0 0 0 0 0 0 0 0 0 0 0 0 0 0 0 0 0 0 0 0 0 0 0 0 0 0 0 0 0 0 0 0 0 0 0 0 0 0 0 0 0 0 0 0 0 0 0 0 0 0 
</DataArray>
<DataArray Name="Stress_22" format="ascii" type="Float64">
0 0 0 0 0 0 0 0 0 0 0 0 0 0 0 0 0 0 0 0 0 0 0 0 0 0 0 0 0 0 0 0 0 0 0 0 0 0 0 0 0 0 0 0 0 0 0 0 0 0 0 0 0 0 0 0 0 0 0 0 0 0 0 0 0 0 0 0 0 0 0 0 0 0 0 0 0 0 0 0 0 0 0 0 0 0 0 0 0 0 0 0 0 0 0 0 0 0 0 0 0 0 0 0 0 0 0 0 0 0 0 0 0 0 0 0 0 0 0 0 0 0 0 0 0 0 0 0 0 0 0 0 0 0 0 0 0 0 0 0 0 0 0 0 0 0 0 0 0 0 0 0 0 0 0 0 0 0 0 0 0 0 0 0 0 0 0 0 0 0 0 0 0 0 0 0 0 0 0 0 0 0 0 0 0 0 0 0 0 0 0 0 0 0 0 0 0 0 0 0 0 0 0 0 0 0 0 0 0 0 0 0 0 0 0 0 0 0 0 0 0 0 0 0 0 0 0 0 0 0 0 0 0 0 0 0 0 0 0 0 0 0 0 0 0 0 0 0 0 0 0 0 0 0 0 0 0 0 0 0 0 0 0 0 0 0 0 0 0 0 0 0 0 0 0 0 0 0 0 0 0 0 0 0 0 0 0 0 
</DataArray>
<DataArray Name="Stress_12" format="ascii" type="Float64">
0 0 0 0 0 0 0 0 0 0 0 0 0 0 0 0 0 0 0 0 0 0 0 0 0 0 0 0 0 0 0 0 0 0 0 0 0 0 0 0 0 0 0 0 0 0 0 0 0 0 0 0 0 0 0 0 0 0 0 0 0 0 0 0 0 0 0 0 0 0 0 0 0 0 0 0 0 0 0 0 0 0 0 0 0 0 0 0 0 0 0 0 0 0 0 0 0 0 0 0 0 0 0 0 0 0 0 0 0 0 0 0 0 0 0 0 0 0 0 0 0 0 0 0 0 0 0 0 0 0 0 0 0 0 0 0 0 0 0 0 0 0 0 0 0 0 0 0 0 0 0 0 0 0 0 0 0 0 0 0 0 0 0 0 0 0 0 0 0 0 0 0 0 0 0 0 0 0 0 0 0 0 0 0 0 0 0 0 0 0 0 0 0 0 0 0 0 0 0 0 0 0 0 0 0 0 0 0 0 0 0 0 0 0 0 0 0 0 0 0 0 0 0 0 0 0 0 0 0 0 0 0 0 0 0 0 0 0 0 0 0 0 0 0 0 0 0 0 0 0 0 0 0 0 0 0 0 0 0 0 0 0 0 0 0 0 0 0 0 0 0 0 0 0 0 0 0 0 0 0 0 0 0 0 0 0 0 0 
</DataArray>
<DataArray Name="Stress_13" format="ascii" type="Float64">
801.205 858.875 892.886 920.496 942.302 957.834 966.625 968.252 962.4 948.864 927.446 898.118 794.662 830.477 862.177 888.867 910.017 925.112 933.683 935.338 929.76 916.73 896.097 867.806 788.883 804.313 833.929 859.9 880.564 895.368 903.848 905.607 900.357 887.873 867.999 840.697 860.944 816.091 763.784 704.443 638.52 566.472 489.006 406.784 320.62 231.282 139.685 46.7227 831.928 788.618 738.123 680.788 617.067 547.484 472.61 393.164 309.879 223.545 135.016 45.1574 806.022 764.142 715.278 659.761 598.042 530.628 458.101 381.106 300.372 216.703 130.888 43.7796 -46.7227 -139.685 -231.282 -320.62 -406.784 -489.006 -566.472 -638.52 -704.443 -763.784 -816.091 -860.944 -45.1574 -135.016 -223.545 -309.879 -393.164 -472.61 -547.484 -617.067 -680.788 -738.123 -788.618 -831.928 -43.7796 -130.888 -216.703 -300.372 -381.106 -458.101 -530.628 -598.042 -659.761 -715.278 -764.142 -806.022 -898.118 -927.446 -948.864 -962.4 -968.252 -966.625 -957.834 -942.302 -920.496 -892.886 -858.875 -801.205 -867.806 -896.097 -916.73 -929.76 -935.338 -933.683 -925.112 -910.017 -888.867 -862.177 -830.477 -794.662 -840.697 -867.999 -887.873 -900.357 -905.607 -903.848 -895.368 -880.564 -859.9 -833.929 -804.313 -788.883 80.1557 85.917 89.3227 92.0699 94.25 95.8061 96.6817 96.8338 96.235 94.8961 92.755 89.8133 79.4623 83.0478 86.2183 88.8813 90.9991 92.5155 93.3747 93.5333 92.9709 91.6777 89.6195 86.7846 78.8451 80.4027 83.3665 85.9526 88.0313 89.5236 90.3812 90.5516 90.0199 88.7902 86.8121 84.0736 86.0925 81.6053 76.366 70.4323 63.8528 56.6447 48.8953 40.6703 32.0565 23.1215 13.9621 4.6728 83.1924 78.8625 73.8133 68.0783 61.7085 54.7525 47.2654 39.3185 30.9855 22.35 13.5002 4.51666 80.5994 76.4183 71.5425 65.9827 59.8065 53.0728 45.8237 38.1227 30.0365 21.6648 13.0924 4.38223 -4.6728 -13.9621 -23.1215 -32.0565 -40.6703 -48.8953 -56.6447 -63.8528 -70.4323 -76.366 -81.6053 -86.0925 -4.51666 -13.5002 -22.35 -30.9855 -39.3185 -47.2654 -54.7525 -61.7085 -68.0783 -73.8133 -78.8625 -83.1924 -4.38223 -13.0924 -21.6648 -30.0365 -38.1227 -45.8237 -53.0728 -59.8065 -65.9827 -71.5425 -76.4183 -80.5994 -89.8133 -92.755 -94.8961 -96.235 -96.8338 -96.6817 -95.8061 -94.25 -92.0699 -89.3227 -85.917 -80.1557 -86.7846 -89.6195 -91.6777 -92.9709 -93.5333 -93.3747 -92.5155 -90.9991 -88.8813 -86.2183 -83.0478 -79.4623 -84.0736 -86.8121 -88.7902 -90.0199 -90.5516 -90.3812 -89.5236 -88.0313 -85.9526 -83.3665 -80.4027 -78.8451 
</DataArray>
<DataArray Name="Stress_23" format="ascii" type="Float64">
-1480.92 -1438.69 -1376.7 -1309.58 -1238.37 -1163.7 -1086.24 -1006.65 -925.751 -844.287 -763.082 -683.037 -1467.87 -1439.26 -1380.76 -1315.92 -1247.15 -1175.02 -1100.14 -1023.25 -945.039 -866.279 -787.8 -710.411 -1483.26 -1444.48 -1386.5 -1323.82 -1257.2 -1187.32 -1114.79 -1040.25 -964.433 -888.076 -811.966 -736.918 -604.983 -529.789 -458.309 -391.38 -329.676 -273.978 -224.961 -183.191 -149.156 -123.235 -105.821 -97.0381 -634.95 -562.25 -493.14 -428.404 -368.746 -314.896 -267.491 -227.097 -194.181 -169.13 -152.27 -143.789 -663.722 -593.194 -526.142 -463.334 -405.449 -353.183 -307.186 -267.992 -236.056 -211.725 -195.353 -187.139 -97.0381 -105.821 -123.235 -149.156 -183.191 -224.961 -273.978 -329.676 -391.38 -458.309 -529.789 -604.983 -143.789 -152.27 -169.13 -194.181 -227.097 -267.491 -314.896 -368.746 -428.404 -493.14 -562.25 -634.95 -187.139 -195.353 -211.725 -236.056 -267.992 -307.186 -353.183 -405.449 -463.334 -526.142 -593.194 -663.722 -683.037 -763.082 -844.287 -925.751 -1006.65 -1086.24 -1163.7 -1238.37 -1309.58 -1376.7 -1438.69 -1480.92 -710.411 -787.8 -866.279 -945.039 -1023.25 -1100.14 -1175.02 -1247.15 -1315.92 -1380.76 -1439.26 -1467.87 -736.918 -811.966 -888.076 -964.433 -1040.25 -1114.79 -1187.32 -1257.2 -1323.82 -1386.5 -1444.48 -1483.26 -148.091 -143.871 -137.67 -130.955 -123.835 -116.365 -108.616 -100.654 -92.5784 -84.4345 -76.3084 -68.3054 -146.788 -143.931 -138.085 -131.599 -124.717 -117.501 -110.014 -102.327 -94.5082 -86.6305 -78.7828 -71.0447 -148.324 -144.452 -138.666 -132.395 -125.722 -118.733 -111.484 -104.037 -96.4494 -88.8032 -81.1998 -73.6982 -60.5007 -52.9769 -45.8346 -39.1617 -32.983 -27.4084 -22.5088 -18.3405 -14.942 -12.3414 -10.6094 -9.72893 -63.4938 -56.2178 -49.3115 -42.8474 -36.8764 -31.4842 -26.7455 -22.7126 -19.4234 -16.9119 -15.2261 -14.3817 -66.3676 -59.3018 -52.6006 -46.3328 -40.5318 -35.2937 -30.6976 -26.784 -23.5969 -21.1472 -19.507 -18.6965 -9.72893 -10.6094 -12.3414 -14.942 -18.3405 -22.5088 -27.4084 -32.983 -39.1617 -45.8346 -52.9769 -60.5007 -14.3817 -15.2261 -16.9119 -19.4234 -22.7126 -26.7455 -31.4842 -36.8764 -42.8474 -49.3115 -56.2178 -63.4938 -18.6965 -19.507 -21.1472 -23.5969 -26.784 -30.6976 -35.2937 -40.5318 -46.3328 -52.6006 -59.3018 -66.3676 -68.3054 -76.3084 -84.4345 -92.5784 -100.654 -108.616 -116.365 -123.835 -130.955 -137.67 -143.871 -148.091 -71.0447 -78.7828 -86.6305 -94.5082 -102.327 -110.014 -117.501 -124.717 -131.599 -138.085 -143.931 -146.788 -73.6982 -81.1998 -88.8032 -96.4494 -104.037 -111.484 -118.733 -125.722 -132.395 -138.666 -144.452 -148.324 
</DataArray>
<DataArray Name="Stress_33" format="ascii" type="Float64">
0 0 0 0 0 0 0 0 0 0 0 0 0 0 0 0 0 0 0 0 0 0 0 0 0 0 0 0 0 0 0 0 0 0 0 0 0 0 0 0 0 0 0 0 0 0 0 0 0 0 0 0 0 0 0 0 0 0 0 0 0 0 0 0 0 0 0 0 0 0 0 0 0 0 0 0 0 0 0 0 0 0 0 0 0 0 0 0 0 0 0 0 0 0 0 0 0 0 0 0 0 0 0 0 0 0 0 0 0 0 0 0 0 0 0 0 0 0 0 0 0 0 0 0 0 0 0 0 0 0 0 0 0 0 0 0 0 0 0 0 0 0 0 0 0 0 0 0 0 0 0 0 0 0 0 0 0 0 0 0 0 0 0 0 0 0 0 0 0 0 0 0 0 0 0 0 0 0 0 0 0 0 0 0 0 0 0 0 0 0 0 0 0 0 0 0 0 0 0 0 0 0 0 0 0 0 0 0 0 0 0 0 0 0 0 0 0 0 0 0 0 0 0 0 0 0 0 0 0 0 0 0 0 0 0 0 0 0 0 0 0 0 0 0 0 0 0 0 0 0 0 0 0 0 0 0 0 0 0 0 0 0 0 0 0 0 0 0 0 0 0 0 0 0 0 0 0 0 0 0 0 0 0 0 0 0 0 0 
</DataArray>
</CellData>
<Points>
<DataArray NumberOfComponents="3" format="ascii" type="Float64">
0 0.09 0 -0.06364 0.06364 0 -0.005886 0.089807 0 -0.011747 0.08923 0 -0.017558 0.088271 0 -0.023294 0.086933 0 -0.02893 0.085224 0 -0.034442 0.083149 0 -0.039806 0.080719 0 -0.045 0.077942 0 -0.050001 0.074832 0 -0.054789 0.071402 0 -0.059341 0.067666 0 -0.065997 0.065997 0 0 0.093333 0 -0.006104 0.093133 0 -0.012182 0.092535 0 -0.018208 0.09154 0 -0.024156 0.090153 0 -0.030001 0.08838 0 -0.035717 0.086229 0 -0.04128 0.083708 0 -0.046667 0.080829 0 -0.051853 0.077604 0 -0.056818 0.074046 0 -0.061539 0.070172 0 -0.068354 0.068354 0 0 0.096667 0 -0.006322 0.09646 0 -0.012618 0.09584 0 -0.018859 0.094809 0 -0.025019 0.093373 0 -0.031072 0.091537 0 -0.036993 0.089308 0 -0.042755 0.086698 0 -0.048333 0.083716 0 -0.053705 0.080375 0 -0.058847 0.076691 0 -0.063737 0.072678 0 -0.070711 0.070711 0 0 0.1 0 -0.00654 0.099786 0 -0.013053 0.099144 0 -0.019509 0.098079 0 -0.025882 0.096593 0 -0.032144 0.094693 0 -0.038268 0.092388 0 -0.044229 0.089687 0 -0.05 0.086603 0 -0.055557 0.083147 0 -0.060876 0.079335 0 -0.065935 0.075184 0 -0.09 0 0 -0.067666 0.059341 0 -0.071402 0.054789 0 -0.074832 0.050001 0 -0.077942 0.045 0 -0.080719 0.039806 0 -0.083149 0.034442 0 -0.085224 0.02893 0 -0.086933 0.023294 0 -0.088271 0.017558 0 -0.08923 0.011747 0 -0.089807 0.005886 0 -0.093333 0 0 -0.070172 0.061539 0 -0.074046 0.056818 0 -0.077604 0.051853 0 -0.080829 0.046667 0 -0.083708 0.04128 0 -0.086229 0.035717 0 -0.08838 0.030001 0 -0.090153 0.024156 0 -0.09154 0.018208 0 -0.092535 0.012182 0 -0.093133 0.006104 0 -0.096667 0 0 -0.072678 0.063737 0 -0.076691 0.058847 0 -0.080375 0.053705 0 -0.083716 0.048333 0 -0.086698 0.042755 0 -0.089308 0.036993 0 -0.091537 0.031072 0 -0.093373 0.025019 0 -0.094809 0.018859 0 -0.09584 0.012618 0 -0.09646 0.006322 0 -0.1 0 0 -0.075184 0.065935 0 -0.079335 0.060876 0 -0.083147 0.055557 0 -0.086603 0.05 0 -0.089687 0.044229 0 -0.092388 0.038268 0 -0.094693 0.032144 0 -0.096593 0.025882 0 -0.098079 0.019509 0 -0.099144 0.013053 0 -0.099786 0.00654 0 -0.06364 -0.06364 0 -0.089807 -0.005886 0 -0.08923 -0.011747 0 -0.088271 -0.017558 0 -0.086933 -0.023294 0 -0.085224 -0.02893 0 -0.083149 -0.034442 0 -0.080719 -0.039806 0 -0.077942 -0.045 0 -0.074832 -0.050001 0 -0.071402 -0.054789 0 -0.067666 -0.059341 0 -0.065997 -0.065997 0 -0.093133 -0.006104 0 -0.092535 -0.012182 0 -0.09154 -0.018208 0 -0.090153 -0.024156 0 -0.08838 -0.030001 0 -0.086229 -0.035717 0 -0.083708 -0.04128 0 -0.080829 -0.046667 0 -0.077604 -0.051853 0 -0.074046 -0.056818 0 -0.070172 -0.061539 0 -0.068354 -0.068354 0 -0.09646 -0.006322 0 -0.09584 -0.012618 0 -0.094809 -0.018859 0 -0.093373 -0.025019 0 -0.091537 -0.031072 0 -0.089308 -0.036993 0 -0.086698 -0.042755 0 -0.083716 -0.048333 0 -0.080375 -0.053705 0 -0.076691 -0.058847 0 -0.072678 -0.063737 0 -0.070711 -0.070711 0 -0.099786 -0.00654 0 -0.099144 -0.013053 0 -0.098079 -0.019509 0 -0.096593 -0.025882 0 -0.094693 -0.032144 0 -0.092388 -0.038268 0 -0.089687 -0.044229 0 -0.086603 -0.05 0 -0.083147 -0.055557 0 -0.079335 -0.060876 0 -0.075184 -0.065935 0 0 -0.09 0 -0.059341 -0.067666 0 -0.054789 -0.071402 0 -0.050001 -0.074832 0 -0.045 -0.077942 0 -0.039806 -0.080719 0 -0.034442 -0.083149 0 -0.02893 -0.085224 0 -0.023294 -0.086933 0 -0.017558 -0.088271 0 -0.011747 -0.08923 0 -0.005886 -0.089807 0 0 -0.093333 0 -0.061539 -0.070172 0 -0.056818 -0.074046 0 -0.051853 -0.077604 0 -0.046667 -0.080829 0 -0.04128 -0.083708 0 -0.035717 -0.086229 0 -0.030001 -0.08838 0 -0.024156 -0.090153 0 -0.018208 -0.09154 0 -0.012182 -0.092535 0 -0.006104 -0.093133 0 0 -0.096667 0 -0.063737 -0.072678 0 -0.058847 -0.076691 0 -0.053705 -0.080375 0 -0.048333 -0.083716 0 -0.042755 -0.086698 0 -0.036993 -0.089308 0 -0.031072 -0.091537 0 -0.025019 -0.093373 0 -0.018859 -0.094809 0 -0.012618 -0.09584 0 -0.006322 -0.09646 0 0 -0.1 0 -0.065935 -0.075184 0 -0.060876 -0.079335 0 -0.055557 -0.083147 0 -0.05 -0.086603 0 -0.044229 -0.089687 0 -0.038268 -0.092388 0 -0.032144 -0.094693 0 -0.025882 -0.096593 0 -0.019509 -0.098079 0 -0.013053 -0.099144 0 -0.00654 -0.099786 0 0.06364 -0.06364 0 0.005886 -0.089807 0 0.011747 -0.08923 0 0.017558 -0.088271 0 0.023294 -0.086933 0 0.02893 -0.085224 0 0.034442 -0.083149 0 0.039806 -0.080719 0 0.045 -0.077942 0 0.050001 -0.074832 0 0.054789 -0.071402 0 0.059341 -0.067666 0 0.065997 -0.065997 0 0.006104 -0.093133 0 0.012182 -0.092535 0 0.018208 -0.09154 0 0.024156 -0.090153 0 0.030001 -0.08838 0 0.035717 -0.086229 0 0.04128 -0.083708 0 0.046667 -0.080829 0 0.051853 -0.077604 0 0.056818 -0.074046 0 0.061539 -0.070172 0 0.068354 -0.068354 0 0.006322 -0.09646 0 0.012618 -0.09584 0 0.018859 -0.094809 0 0.025019 -0.093373 0 0.031072 -0.091537 0 0.036993 -0.089308 0 0.042755 -0.086698 0 0.048333 -0.083716 0 0.053705 -0.080375 0 0.058847 -0.076691 0 0.063737 -0.072678 0 0.070711 -0.070711 0 0.00654 -0.099786 0 0.013053 -0.099144 0 0.019509 -0.098079 0 0.025882 -0.096593 0 0.032144 -0.094693 0 0.038268 -0.092388 0 0.044229 -0.089687 0 0.05 -0.086603 0 0.055557 -0.083147 0 0.060876 -0.079335 0 0.065935 -0.075184 0 0.09 0 0 0.067666 -0.059341 0 0.071402 -0.054789 0 0.074832 -0.050001 0 0.077942 -0.045 0 0.080719 -0.039806 0 0.083149 -0.034442 0 0.085224 -0.02893 0 0.086933 -0.023294 0 0.088271 -0.017558 0 0.08923 -0.011747 0 0.089807 -0.005886 0 0.093333 0 0 0.070172 -0.061539 0 0.074046 -0.056818 0 0.077604 -0.051853 0 0.080829 -0.046667 0 0.083708 -0.04128 0 0.086229 -0.035717 0 0.08838 -0.030001 0 0.090153 -0.024156 0 0.09154 -0.018208 0 0.092535 -0.012182 0 0.093133 -0.006104 0 0.096667 0 0 0.072678 -0.063737 0 0.076691 -0.058847 0 0.080375 -0.053705 0 0.083716 -0.048333 0 0.086698 -0.042755 0 0.089308 -0.036993 0 0.091537 -0.031072 0 0.093373 -0.025019 0 0.094809 -0.018859 0 0.09584 -0.012618 0 0.09646 -0.006322 0 0.1 0 0 0.075184 -0.065935 0 0.079335 -0.060876 0 0.083147 -0.055557 0 0.086603 -0.05 0 0.089687 -0.044229 0 0.092388 -0.038268 0 0.094693 -0.032144 0 0.096593 -0.025882 0 0.098079 -0.019509 0 0.099144 -0.013053 0 0.099786 -0.00654 0 0.06364 0.06364 0 0.089807 0.005886 0 0.08923 0.011747 0 0.088271 0.017558 0 0.086933 0.023294 0 0.085224 0.02893 0 0.083149 0.034442 0 0.080719 0.039806 0 0.077942 0.045 0 0.074832 0.050001 0 0.071402 0.054789 0 0.067666 0.059341 0 0.065997 0.065997 0 0.093133 0.006104 0 0.092535 0.012182 0 0.09154 0.018208 0 0.090153 0.024156 0 0.08838 0.030001 0 0.086229 0.035717 0 0.083708 0.04128 0 0.080829 0.046667 0 0.077604 0.051853 0 0.074046 0.056818 0 0.070172 0.061539 0 0.068354 0.068354 0 0.09646 0.006322 0 0.09584 0.012618 0 0.094809 0.018859 0 0.093373 0.025019 0 0.091537 0.031072 0 0.089308 0.036993 0 0.086698 0.042755 0 0.083716 0.048333 0 0.080375 0.053705 0 0.076691 0.058847 0 0.072678 0.063737 0 0.070711 0.070711 0 0.099786 0.00654 0 0.099144 0.013053 0 0.098079 0.019509 0 0.096593 0.025882 0 0.094693 0.032144 0 0.092388 0.038268 0 0.089687 0.044229 0 0.086603 0.05 0 0.083147 0.055557 0 0.079335 0.060876 0 0.075184 0.065935 0 0.059341 0.067666 0 0.054789 0.071402 0 0.050001 0.074832 0 0.045 0.077942 0 0.039806 0.080719 0 0.034442 0.083149 0 0.02893 0.085224 0 0.023294 0.086933 0 0.017558 0.088271 0 0.011747 0.08923 0 0.005886 0.089807 0 0.061539 0.070172 0 0.056818 0.074046 0 0.051853 0.077604 0 0.046667 0.080829 0 0.04128 0.083708 0 0.035717 0.086229 0 0.030001 0.08838 0 0.024156 0.090153 0 0.018208 0.09154 0 0.012182 0.092535 0 0.006104 0.093133 0 0.063737 0.072678 0 0.058847 0.076691 0 0.053705 0.080375 0 0.048333 0.083716 0 0.042755 0.086698 0 0.036993 0.089308 0 0.031072 0.091537 0 0.025019 0.093373 0 0.018859 0.094809 0 0.012618 0.09584 0 0.006322 0.09646 0 0.065935 0.075184 0 0.060876 0.079335 0 0.055557 0.083147 0 0.05 0.086603 0 0.044229 0.089687 0 0.038268 0.092388 0 0.032144 0.094693 0 0.025882 0.096593 0 0.019509 0.098079 0 0.013053 0.099144 0 0.00654 0.099786 0 
</DataArray>
</Points>
<Cells>
<DataArray Name="connectivity" format="ascii" type="Int64">