<?xml version="1.0"?>
<VTKFile byte_order="LittleEndian" type="UnstructuredGrid" version="0.1">
<UnstructuredGrid>
<Piece NumberOfCells="288" NumberOfPoints="384">
<PointData>
<DataArray Name="Warping_X" format="ascii" type="Float64">
-0 -0 0 0 0 0 0 0 0 0 0 0 0 0 0 0 0 0 0 0 0 0 0 0 0 0 0 0 0 0 0 0 0 0 0 0 0 0 0 0 0 0 0 0 0 0 0 0 0 0 0 0 0 0 0 0 0 0 0 0 0 0 0 0 0 0 0 0 0 0 0 0 0 0 0 0 0 0 0 0 0 0 0 0 0 0 0 0 0 0 0 0 0 0 0 0 0 0 0 0 -0 0 0 0 0 0 0 0 0 0 0 0 0 0 0 0 0 0 0 0 0 0 0 0 0 0 0 0 0 0 0 0 0 0 0 0 0 0 0 0 0 0 0 0 0 0 0 0 0 0 0 0 0 0 0 0 0 0 0 0 0 0 0 0 0 0 0 0 0 0 0 0 0 0 0 0 0 0 0 0 0 0 0 0 0 0 0 0 0 0 0 0 0 0 0 0 -0 -0 0 0 0 0 0 0 0 0 0 0 0 0 0 0 0 0 0 0 0 0 0 0 0 0 0 0 0 0 0 0 0 0 0 0 0 0 0 0 0 0 0 0 0 0 0 0 0 0 0 0 0 0 0 0 0 0 0 0 0 0 0 0 0 0 0 0 0 0 0 0 0 0 0 0 0 0 0 0 0 0 0 0 0 0 0 0 0 0 0 0 0 0 0 0 -0 0 0 0 0 0 0 0 0 0 0 0 0 0 0 0 0 0 0 0 0 0 0 0 0 0 0 0 0 0 0 0 0 0 0 0 0 0 0 0 0 0 0 0 0 0 0 0 0 0 0 0 0 0 0 0 0 0 0 0 0 0 0 0 0 0 0 0 0 0 0 0 0 0 0 0 0 0 0 0 0 0 0 0 0 0 0 0 0 0 0 0 
</DataArray>
<DataArray Name="Warping_Y" format="ascii" type="Float64">
0 -0 0 0 0 0 0 0 0 0 0 0 0 0 -0 0 0 0 0 0 0 0 0 0 0 0 0 -0 0 0 0 0 0 0 0 0 0 0 0 0 0 0 0 0 0 0 0 0 0 0 0 0 -0 0 0 0 0 0 0 0 0 0 0 0 0 0 0 0 0 0 0 0 0 0 0 0 0 0 0 0 0 0 0 0 0 0 0 0 0 0 0 0 0 0 0 0 0 0 0 0 -0 0 0 0 0 0 0 0 0 0 0 0 0 0 0 0 0 0 0 0 0 0 0 0 0 0 0 0 0 0 0 0 0 0 0 0 0 0 0 0 0 0 0 0 0 0 0 0 0 0 0 0 0 0 0 0 0 0 0 0 0 0 0 0 0 0 0 0 0 0 0 0 0 0 0 0 0 0 0 0 0 0 0 0 0 0 0 0 0 0 0 0 0 0 0 0 -0 0 0 0 0 0 0 0 0 0 0 0 0 0 0 0 0 0 0 0 0 0 0 0 0 0 0 0 0 0 0 0 0 0 0 0 0 0 0 0 0 0 0 0 0 0 0 0 -0 0 0 0 0 0 0 0 0 0 0 0 0 0 0 0 0 0 0 0 0 0 0 0 0 0 0 0 0 0 0 0 0 0 0 0 0 0 0 0 0 0 0 0 0 0 0 0 -0 0 0 0 0 0 0 0 0 0 0 0 0 0 0 0 0 0 0 0 0 0 0 0 0 0 0 0 0 0 0 0 0 0 0 0 0 0 0 0 0 0 0 0 0 0 0 0 0 0 0 0 0 0 0 0 0 0 0 0 0 0 0 0 0 0 0 0 0 0 0 0 0 0 0 0 0 0 0 0 0 0 0 0 0 0 0 0 0 0 0 0 
</DataArray>
<DataArray Name="Warping_Z" format="ascii" type="Float64">
0 0 0 0 0 0 0 0 0 0 0 0 0 0 0 0 0 0 0 0 0 0 0 0 0 0 0 0 0 0 0 0 0 0 0 0 0 0 0 0 0 0 0 0 0 0 0 0 0 0 0 0 0 0 0 0 0 0 0 0 0 0 0 0 0 0 0 0 0 0 0 0 0 0 0 0 0 0 0 0 0 0 0 0 0 0 0 0 0 0 0 0 0 0 0 0 0 0 0 0 0 0 0 0 0 0 0 0 0 0 0 0 0 0 0 0 0 0 0 0 0 0 0 0 0 0 0 0 0 0 0 0 0 0 0 0 0 0 0 0 0 0 0 0 0 0 0 0 0 0 0 0 0 0 0 0 0 0 0 0 0 0 0 0 0 0 0 0 0 0 0 0 0 0 0 0 0 0 0 0 0 0 0 0 0 0 0 0 0 0 0 0 0 0 0 0 0 0 0 0 0 0 0 0 0 0 0 0 0 0 0 0 0 0 0 0 0 0 0 0 0 0 0 0 0 0 0 0 0 0 0 0 0 0 0 0 0 0 0 0 0 0 0 0 0 0 0 0 0 0 0 0 0 0 0 0 0 0 0 0 0 0 0 0 0 0 0 0 0 0 0 0 0 0 0 0 0 0 0 0 0 0 0 0 0 0 0 0 0 0 0 0 0 0 0 0 0 0 0 0 0 0 0 0 0 0 0 0 0 0 0 0 0 0 0 0 0 0 0 0 0 0 0 0 0 0 0 0 0 0 0 0 0 0 0 0 0 0 0 0 0 0 0 0 0 0 0 0 0 0 0 0 0 0 0 0 0 0 0 0 0 0 0 0 0 0 0 0 0 0 0 0 0 0 0 0 0 0 0 0 0 0 0 0 
</DataArray>
</PointData>
<CellData>
<DataArray Name="MaterialId" format="ascii" type="Float64">
1 1 1 1 1 1 1 1 1 1 1 1 1 1 1 1 1 1 1 1 1 1 1 1 1 1 1 1 1 1 1 1 1 1 1 1 1 1 1 1 1 1 1 1 1 1 1 1 1 1 1 1 1 1 1 1 1 1 1 1 1 1 1 1 1 1 1 1 1 1 1 1 1 1 1 1 1 1 1 1 1 1 1 1 1 1 1 1 1 1 1 1 1 1 1 1 1 1 1 1 1 1 1 1 1 1 1 1 1 1 1 1 1 1 1 1 1 1 1 1 1 1 1 1 1 1 1 1 1 1 1 1 1 1 1 1 1 1 1 1 1 1 1 1 2 2 2 2 2 2 2 2 2 2 2 2 2 2 2 2 2 2 2 2 2 2 2 2 2 2 2 2 2 2 2 2 2 2 2 2 2 2 2 2 2 2 2 2 2 2 2 2 2 2 2 2 2 2 2 2 2 2 2 2 2 2 2 2 2 2 2 2 2 2 2 2 2 2 2 2 2 2 2 2 2 2 2 2 2 2 2 2 2 2 2 2 2 2 2 2 2 2 2 2 2 2 2 2 2 2 2 2 2 2 2 2 2 2 2 2 2 2 2 2 2 2 2 2 2 2 2 2 2 2 2 2 2 2 2 2 2 2 2 2 2 2 2 2 
</DataArray>
<DataArray Name="FiberAngle" format="ascii" type="Float64">
0 0 0 0 0 0 0 0 0 0 0 0 0 0 0 0 0 0 0 0 0 0 0 0 0 0 0 0 0 0 0 0 0 0 0 0 0 0 0 0 0 0 0 0 0 0 0 0 0 0 0 0 0 0 0 0 0 0 0 0 0 0 0 0 0 0 0 0 0 0 0 0 0 0 0 0 0 0 0 0 0 0 0 0 0 0 0 0 0 0 0 0 0 0 0 0 0 0 0 0 0 0 0 0 0 0 0 0 0 0 0 0 0 0 0 0 0 0 0 0 0 0 0 0 0 0 0 0 0 0 0 0 0 0 0 0 0 0 0 0 0 0 0 0 0 0 0 0 0 0 0 0 0 0 0 0 0 0 0 0 0 0 0 0 0 0 0 0 0 0 0 0 0 0 0 0 0 0 0 0 0 0 0 0 0 0 0 0 0 0 0 0 0 0 0 0 0 0 0 0 0 0 0 0 0 0 0 0 0 0 0 0 0 0 0 0 0 0 0 0 0 0 0 0 0 0 0 0 0 0 0 0 0 0 0 0 0 0 0 0 0 0 0 0 0 0 0 0 0 0 0 0 0 0 0 0 0 0 0 0 0 0 0 0 0 0 0 0 0 0 0 0 0 0 0 0 0 0 0 0 0 0 0 0 0 0 0 0 
</DataArray>
<DataArray Name="Strain_11" format="ascii" type="Float64">
0 0 0 0 0 0 0 0 0 0 0 0 0 0 0 0 0 0 0 0 0 0 0 0 0 0 0 0 0 0 0 0 0 0 0 0 0 0 0 0 0 0 0 0 0 0 0 0 0 0 0 0 0 0 0 0 0 0 0 0 0 0 0 0 0 0 0 0 0 0 0 0 0 0 0 0 0 0 0 0 0 0 0 0 0 0 0 0 0 0 0 0 0 0 0 0 0 0 0 0 0 0 0 0 0 0 0 0 0 0 0 0 0 0 0 0 0 0 0 0 0 0 0 0 0 0 0 0 0 0 0 0 0 0 0 0 0 0 0 0 0 0 0 0 0 0 0 0 0 0 0 0 0 0 0 0 0 0 0 0 0 0 0 0 0 0 0 0 0 0 0 0 0 0 0 0 0 0 0 0 0 0 0 0 0 0 0 0 0 0 0 0 0 0 0 0 0 0 0 0 0 0 0 0 0 0 0 0 0 0 0 0 0 0 0 0 0 0 0 0 0 0 0 0 0 0 0 0 0 0 0 0 0 0 0 0 0 0 0 0 0 0 0 0 0 0 0 0 0 0 0 0 0 0 0 0 0 0 0 0 0 0 0 0 0 0 0 0 0 0 0 0 0 0 0 0 0 0 0 0 0 0 0 0 0 0 0 0 
</DataArray>
<DataArray Name="Strain_22" format="ascii" type="Float64">
0 0 0 0 0 0 0 0 0 0 0 0 0 0 0 0 0 0 0 0 0 0 0 0 0 0 0 0 0 0 0 0 0 0 0 0 0 0 0 0 0 0 0 0 0 0 0 0 0 0 0 0 0 0 0 0 0 0 0 0 0 0 0 0 0 0 0 0 0 0 0 0 0 0 0 0 0 0 0 0 0 0 0 0 0 0 0 0 0 0 0 0 0 0 0 0 0 0 0 0 0 0 0 0 0 0 0 0 0 0 0 0 0 0 0 0 0 0 0 0 0 0 0 0 0 0 0 0 0 0 0 0 0 0 0 0 0 0 0 0 0 0 0 0 0 0 0 0 0 0 0 0 0 0 0 0 0 0 0 0 0 0 0 0 0 0 0 0 0 0 0 0 0 0 0 0 0 0 0 0 0 0 0 0 0 0 0 0 0 0 0 0 0 0 0 0 0 0 0 0 0 0 0 0 0 0 0 0 0 0 0 0 0 0 0 0 0 0 0 0 0 0 0 0 0 0 0 0 0 0 0 0 0 0 0 0 0 0 0 0 0 0 0 0 0 0 0 0 0 0 0 0 0 0 0 0 0 0 0 0 0 0 0 0 0 0 0 0 0 0 0 0 0 0 0 0 0 0 0 0 0 0 0 0 0 0 0 0 
</DataArray>
<DataArray Name="Strain_12" format="ascii" type="Float64">
0 0 0 0 0 0 0 0 0 0 0 0 0 0 0 0 0 0 0 0 0 0 0 0 0 0 0 0 0 0 0 0 0 0 0 0 0 0 0 0 0 0 0 0 0 0 0 0 0 0 0 0 0 0 0 0 0 0 0 0 0 0 0 0 0 0 0 0 0 0 0 0 0 0 0 0 0 0 0 0 0 0 0 0 0 0 0 0 0 0 0 0 0 0 0 0 0 0 0 0 0 0 0 0 0 0 0 0 0 0 0 0 0 0 0 0 0 0 0 0 0 0 0 0 0 0 0 0 0 0 0 0 0 0 0 0 0 0 0 0 0 0 0 0 0 0 0 0 0 0 0 0 0 0 0 0 0 0 0 0 0 0 0 0 0 0 0 0 0 0 0 0 0 0 0 0 0 0 0 0 0 0 0 0 0 0 0 0 0 0 0 0 0 0 0 0 0 0 0 0 0 0 0 0 0 0 0 0 0 0 0 0 0 0 0 0 0 0 0 0 0 0 0 0 0 0 0 0 0 0 0 0 0 0 0 0 0 0 0 0 0 0 0 0 0 0 0 0 0 0 0 0 0 0 0 0 0 0 0 0 0 0 0 0 0 0 0 0 0 0 0 0 0 0 0 0 0 0 0 0 0 0 0 0 0 0 0 0 
</DataArray>
<DataArray Name="Strain_13" format="ascii" type="Float64">
-23.0689 -22.1739 -21.4068 -20.8238 -20.4284 -20.2187 -20.1883 -20.327 -20.6207 -21.051 -21.6011 -22.2494 -23.1758 -22.2597 -21.5198 -20.9615 -20.5855 -20.3893 -20.3669 -20.5082 -20.7994 -21.2235 -21.763 -22.3973 -23.2634 -22.3247 -21.6094 -21.0751 -20.7182 -20.537 -20.525 -20.6729 -20.9668 -21.3895 -21.9245 -22.5519 -22.9724 -23.7464 -24.5478 -25.3516 -26.1342 -26.8747 -27.5513 -28.1457 -28.6414 -29.0254 -29.2871 -29.4197 -23.1039 -23.8595 -24.6407 -25.4245 -26.1875 -26.9085 -27.5675 -28.1461 -28.6288 -29.0025 -29.2573 -29.3863 -23.2493 -23.9935 -24.7621 -25.533 -26.2832 -26.9913 -27.638 -28.2061 -28.6799 -29.0466 -29.2965 -29.4231 -29.4197 -29.2871 -29.0254 -28.6414 -28.1457 -27.5513 -26.8747 -26.1342 -25.3516 -24.5478 -23.7464 -22.9724 -29.3863 -29.2573 -29.0025 -28.6288 -28.1461 -27.5675 -26.9085 -26.1875 -25.4245 -24.6407 -23.8595 -23.1039 -29.4231 -29.2965 -29.0466 -28.6799 -28.2061 -27.638 -26.9913 -26.2832 -25.533 -24.7621 -23.9935 -23.2493 -22.2494 -21.6011 -21.051 -20.6207 -20.327 -20.1883 -20.2187 -20.4284 -20.8238 -21.4068 -22.1739 -23.0689 -22.3973 -21.763 -21.2235 -20.7994 -20.5082 -20.3669 -20.3893 -20.5855 -20.9615 -21.5198 -22.2597 -23.1758 -22.5519 -21.9245 -21.3895 -20.9668 -20.6729 -20.525 -20.537 -20.7182 -21.0751 -21.6094 -22.3247 -23.2634 29.6818 28.2252 26.3508 24.1237 21.5864 18.7701 15.7102 12.4478 9.02853 5.50671 1.92036 -1.6794 27.8443 26.3878 24.5744 22.4266 19.9768 17.2566 14.3005 11.1481 7.84414 4.43755 0.970159 -2.51067 26.1434 24.6825 22.923 20.8397 18.4667 15.8297 12.9631 9.90363 6.69649 3.39073 0.0246929 -3.35609 -5.23996 -8.7121 -12.0492 -15.2017 -18.1253 -20.7834 -23.1349 -25.1482 -26.7933 -28.0484 -28.895 -29.3211 -5.95458 -9.31293 -12.5394 -15.5899 -18.4195 -20.9902 -23.2658 -25.2131 -26.8055 -28.0198 -28.839 -29.2513 -6.70105 -9.96182 -13.0949 -16.0587 -18.8087 -21.3057 -23.5155 -25.4082 -26.9556 -28.1355 -28.9313 -29.332 -29.3211 -28.895 -28.0484 -26.7933 -25.1482 -23.1349 -20.7834 -18.1253 -15.2017 -12.0492 -8.7121 -5.23996 -29.2513 -28.839 -28.0198 -26.8055 -25.2131 -23.2658 -20.9902 -18.4195 -15.5899 -12.5394 -9.31293 -5.95458 -29.332 -28.9313 -28.1355 -26.9556 -25.4082 -23.5155 -21.3057 -18.8087 -16.0587 -13.0949 -9.96182 -6.70105 -1.6794 1.92036 5.50671 9.02853 12.4478 15.7102 18.7701 21.5864 24.1237 26.3508 28.2252 29.6818 -2.51067 0.970159 4.43755 7.84414 11.1481 14.3005 17.2566 19.9768 22.4266 24.5744 26.3878 27.8443 -3.35609 0.0246929 3.39073 6.69649 9.90363 12.9631 15.8297 18.4667 20.8397 22.923 24.6825 26.1434 
</DataArray>
<DataArray Name="Strain_23" format="ascii" type="Float64">
0.192199 0.740833 1.35186 2.03311 2.75565 3.491 4.21052 4.88841 5.49948 6.02434 6.44475 6.74486 0.171508 0.743275 1.34391 2.00819 2.7122 3.42735 4.12668 4.78448 5.37794 5.8868 6.29316 6.5828 0.187445 0.725162 1.31643 1.97294 2.66705 3.37068 4.05736 4.70263 5.28463 5.78318 6.1801 6.46252 6.91402 6.94481 6.83282 6.57775 6.18505 5.66049 5.0142 4.25969 3.41292 2.49234 1.51739 0.509495 6.74516 6.77283 6.66152 6.41165 6.02739 5.51525 4.88486 4.14925 3.32426 2.42745 1.47788 0.496204 6.62049 6.64632 6.5358 6.28926 5.91165 5.40876 4.78985 4.06823 3.25903 2.37984 1.44887 0.486407 -0.509495 -1.51739 -2.49234 -3.41292 -4.25969 -5.0142 -5.66049 -6.18505 -6.57775 -6.83282 -6.94481 -6.91402 -0.496204 -1.47788 -2.42745 -3.32426 -4.14925 -4.88486 -5.51525 -6.02739 -6.41165 -6.66152 -6.77283 -6.74516 -0.486407 -1.44887 -2.37984 -3.25903 -4.06823 -4.78985 -5.40876 -5.91165 -6.28926 -6.5358 -6.64632 -6.62049 -6.74486 -6.44475 -6.02434 -5.49948 -4.88841 -4.21052 -3.491 -2.75565 -2.03311 -1.35186 -0.740833 -0.192199 -6.5828 -6.29316 -5.8868 -5.37794 -4.78448 -4.12668 -3.42735 -2.7122 -2.00819 -1.34391 -0.743275 -0.171508 -6.46252 -6.1801 -5.78318 -5.28463 -4.70263 -4.05736 -3.37068 -2.66705 -1.97294 -1.31643 -0.725162 -0.187445 1.94947 5.64509 9.17141 12.4484 15.4341 18.0977 20.407 22.3374 23.863 24.9761 25.6663 25.9248 1.90258 5.44293 8.84943 12.0196 14.9102 17.4878 19.7231 21.5903 23.071 24.1505 24.8183 25.0701 1.83313 5.29968 8.60852 11.6856 14.4944 16.9972 19.1669 20.9799 22.4197 23.4703 24.1176 24.3617 25.7557 25.167 24.1698 22.7823 21.0354 18.9542 16.5722 13.9287 11.066 8.03072 4.86906 1.63152 24.9088 24.341 23.3773 22.0376 20.3478 18.3351 16.0314 13.4741 10.7055 7.76917 4.7107 1.57842 24.2062 23.6554 22.7192 21.4165 19.7753 17.82 15.5805 13.0955 10.4044 7.55123 4.57868 1.53402 -1.63152 -4.86906 -8.03072 -11.066 -13.9287 -16.5722 -18.9542 -21.0354 -22.7823 -24.1698 -25.167 -25.7557 -1.57842 -4.7107 -7.76917 -10.7055 -13.4741 -16.0314 -18.3351 -20.3478 -22.0376 -23.3773 -24.341 -24.9088 -1.53402 -4.57868 -7.55123 -10.4044 -13.0955 -15.5805 -17.82 -19.7753 -21.4165 -22.7192 -23.6554 -24.2062 -25.9248 -25.6663 -24.9761 -23.863 -22.3374 -20.407 -18.0977 -15.4341 -12.4484 -9.17141 -5.64509 -1.94947 -25.0701 -24.8183 -24.1505 -23.071 -21.5903 -19.7231 -17.4878 -14.9102 -12.0196 -8.84943 -5.44293 -1.90258 -24.3617 -24.1176 -23.4703 -22.4197 -20.9799 -19.1669 -16.9972 -14.4944 -11.6856 -8.60852 -5.29968 -1.83313 
</DataArray>
<DataArray Name="Strain_33" format="ascii" type="Float64">
0 0 0 0 0 0 0 0 0 0 0 0 0 0 0 0 0 0 0 0 0 0 0 0 0 0 0 0 0 0 0 0 0 0 0 0 0 0 0 0 0 0 0 0 0 0 0 0 0 0 0 0 0 0 0 0 0 0 0 0 0 0 0 0 0 0 0 0 0 0 0 0 0 0 0 0 0 0 0 0 0 0 0 0 0 0 0 0 0 0 0 0 0 0 0 0 0 0 0 0 0 0 0 0 0 0 0 0 0 0 0 0 0 0 0 0 0 0 0 0 0 0 0 0 0 0 0 0 0 0 0 0 0 0 0 0 0 0 0 0 0 0 0 0 0 0 0 0 0 0 0 0 0 0 0 0 0 0 0 0 0 0 0 0 0 0 0 0 0 0 0 0 0 0 0 0 0 0 0 0 0 0 0 0 0 0 0 0 0 0 0 0 0 0 0 0 0 0 0 0 0 0 0 0 0 0 0 0 0 0 0 0 0 0 0 0 0 0 0 0 0 0 0 0 0 0 0 0 0 0 0 0 0 0 0 0 0 0 0 0 0 0 0 0 0 0 0 0 0 0 0 0 0 0 0 0 0 0 0 0 0 0 0 0 0 0 0 0 0 0 0 0 0 0 0 0 0 0 0 0 0 0 0 0 0 0 0 0 
</DataArray>
<DataArray Name="Stress_11" format="ascii" type="Float64">
0 0 0 0 0 0 0 0 0 0 0 0 0 0 0 0 0 0 0 0 0 0 0 0 0 0 0 0 0 0 0 0 0 0 0 0 0 0 0 0 0 0 0 0 0 0 0 0 0 0 0 0 0 0 0 0 0 0 0 0 0 0 0 0 0 0 0 0 0 0 0 0 0 0 0 0 0 0 0 0 0 0 0 0 0 0 0 0 0 0 0 0 0 0 0 0 0 0 0 0 0 0 0 0 0 0 0 0 0 0 0 0 0 0 0 0 0 0 0 0 0 0 0 0 0 0 0 0 0 0 0 0 0 0 0 0 0 0 0 0 0 0 0 0 0 0 0 0 0 0 0 0 0 0 0 0 0 0 0 0 0 0 0 0 0 0 0 0 0 0 0 0 0 0 0 0 0 0 0 0 0 0 0 0 0 0 0 0 0 0 0 0 0 0 0 0 0 0 0 0 0 0 0 0 0 0 0 0 0 0 0 0 0 0 0 0 0 0 0 0 0 0 0 0 0 0 0 0 0 0 0 0 0 0 0 0 0 0 0 0 0 0 0 0 0 0 0 0 0 0 0 0 0 0 0 0 0 0 0 0 0 0 0 0 0 0 0 0 0 0 0 0 0 0 0 0 0 0 0 0 0 0 0 0 0 0 0 0 
</DataArray>
<DataArray Name="Stress_22" format="ascii" type="Float64">
0 0 0 0 0 0 0 0 0 0 0 0 0 0 0 0 0 0 0 0 0 0 0 0 0 0 0 0 0 0 0 0 0 0 0 0 0 0 0 0 0 0 0 0 0 0 0 0 0 0 0 0 0 0 0 0 0 0 0 0 0 0 0 0 0 0 0 0 0 0 0 0 0 0 0 0 0 0 0 0 0 0 0 0 0 0 0 0 0 0 0 0 0 0 0 0 0 0 0 0 0 0 0 0 0 0 0 0 0 0 0 0 0 0 0 0 0 0 0 0 0 0 0 0 0 0 0 0 0 0 0 0 0 0 0 0 0 0 0 0 0 0 0 0 0 0 0 0 0 0 0 0 0 0 0 0 0 0 0 0 0 0 0 0 0 0 0 0 0 0 0 0 0 0 0 0 0 0 0 0 0 0 0 0 0 0 0 0 0 0 0 0 0 0 0 0 0 0 0 0 0 0 0 0 0 0 0 0 0 0 0 0 0 0 0 0 0 0 0 0 0 0 0 0 0 0 0 0 0 0 0 0 0 0 0 0 0 0 0 0 0 0 0 0 0 0 0 0 0 0 0 0 0 0 0 0 0 0 0 0 0 0 0 0 0 0 0 0 0 0 0 0 0 0 0 0 0 0 0 0 0 0 0 0 0 0 0 0 
</DataArray>
<DataArray Name="Stress_12" format="ascii" type="Float64">
0 0 0 0 0 0 0 0 0 0 0 0 0 0 0 0 0 0 0 0 0 0 0 0 0 0 0 0 0 0 0 0 0 0 0 0 0 0 0 0 0 0 0 0 0 0 0 0 0 0 0 0 0 0 0 0 0 0 0 0 0 0 0 0 0 0 0 0 0 0 0 0 0 0 0 0 0 0 0 0 0 0 0 0 0 0 0 0 0 0 0 0 0 0 0 0 0 0 0 0 0 0 0 0 0 0 0 0 0 0 0 0 0 0 0 0 0 0 0 0 0 0 0 0 0 0 0 0 0 0 0 0 0 0 0 0 0 0 0 0 0 0 0 0 0 0 0 0 0 0 0 0 0 0 0 0 0 0 0 0 0 0 0 0 0 0 0 0 0 0 0 0 0 0 0 0 0 0 0 0 0 0 0 0 0 0 0 0 0 0 0 0 0 0 0 0 0 0 0 0 0 0 0 0 0 0 0 0 0 0 0 0 0 0 0 0 0 0 0 0 0 0 0 0 0 0 0 0 0 0 0 0 0 0 0 0 0 0 0 0 0 0 0 0 0 0 0 0 0 0 0 0 0 0 0 0 0 0 0 0 0 0 0 0 0 0 0 0 0 0 0 0 0 0 0 0 0 0 0 0 0 0 0 0 0 0 0 0 
</DataArray>
<DataArray Name="Stress_13" format="ascii" type="Float64">
-961.212 -923.922 -891.957 -867.666 -851.191 -842.453 -841.186 -846.964 -859.202 -877.131 -900.052 -927.065 -965.668 -927.497 -896.667 -873.404 -857.737 -849.563 -848.628 -854.517 -866.65 -884.321 -906.797 -933.229 -969.315 -930.203 -900.399 -878.135 -863.266 -855.715 -855.213 -861.376 -873.622 -891.235 -913.528 -939.672 -957.191 -989.443 -1022.83 -1056.32 -1088.94 -1119.79 -1147.98 -1172.75 -1193.4 -1209.4 -1220.31 -1225.83 -962.67 -994.152 -1026.7 -1059.36 -1091.15 -1121.2 -1148.65 -1172.76 -1192.88 -1208.45 -1219.06 -1224.44 -968.728 -999.736 -1031.76 -1063.88 -1095.14 -1124.65 -1151.59 -1175.26 -1195.01 -1210.28 -1220.7 -1225.97 -1225.83 -1220.31 -1209.4 -1193.4 -1172.75 -1147.98 -1119.79 -1088.94 -1056.32 -1022.83 -989.443 -957.191 -1224.44 -1219.06 -1208.45 -1192.88 -1172.76 -1148.65 -1121.2 -1091.15 -1059.36 -1026.7 -994.152 -962.67 -1225.97 -1220.7 -1210.28 -1195.01 -1175.26 -1151.59 -1124.65 -1095.14 -1063.88 -1031.76 -999.736 -968.728 -927.065 -900.052 -877.131 -859.202 -846.964 -841.186 -842.453 -851.191 -867.666 -891.957 -923.922 -961.212 -933.229 -906.797 -884.321 -866.65 -854.517 -848.628 -849.563 -857.737 -873.404 -896.667 -927.497 -965.668 -939.672 -913.528 -891.235 -873.622 -861.376 -855.213 -855.715 -863.266 -878.135 -900.399 -930.203 -969.315 123.675 117.606 109.796 100.516 89.9439 78.2092 65.4595 51.8661 37.6192 22.9448 8.00156 -6.99754 116.019 109.95 102.394 93.4448 83.2374 71.9029 59.5859 46.4508 32.6842 18.4899 4.04236 -10.4612 108.932 102.845 95.5131 86.8327 76.9454 65.9575 54.0134 41.2654 27.9023 14.1281 0.102888 -13.9838 -21.8333 -36.3007 -50.2055 -63.3409 -75.5226 -86.5981 -96.3963 -104.785 -111.64 -116.869 -120.397 -122.172 -24.811 -38.8042 -52.2478 -64.9585 -76.7486 -87.4597 -96.9416 -105.055 -111.69 -116.75 -120.164 -121.881 -27.9213 -41.5079 -54.5625 -66.9116 -78.3701 -88.7743 -97.9822 -105.868 -112.316 -117.232 -120.548 -122.218 -122.172 -120.397 -116.869 -111.64 -104.785 -96.3963 -86.5981 -75.5226 -63.3409 -50.2055 -36.3007 -21.8333 -121.881 -120.164 -116.75 -111.69 -105.055 -96.9416 -87.4597 -76.7486 -64.9585 -52.2478 -38.8042 -24.811 -122.218 -120.548 -117.232 -112.316 -105.868 -97.9822 -88.7743 -78.3701 -66.9116 -54.5625 -41.5079 -27.9213 -6.99754 8.00156 22.9448 37.6192 51.8661 65.4595 78.2092 89.9439 100.516 109.796 117.606 123.675 -10.4612 4.04236 18.4899 32.6842 46.4508 59.5859 71.9029 83.2374 93.4448 102.394 109.95 116.019 -13.9838 0.102888 14.1281 27.9023 41.2654 54.0134 65.9575 76.9454 86.8327 95.5131 102.845 108.932 
</DataArray>
<DataArray Name="Stress_23" format="ascii" type="Float64">
8.00835 30.8683 56.328 84.7138 114.82 145.459 175.44 203.685 229.147 251.016 268.534 281.038 7.14623 30.97 55.9967 83.6753 113.009 142.807 171.946 199.355 224.083 245.285 262.217 274.286 7.81029 30.2153 54.8516 82.2066 111.128 140.446 169.058 195.944 220.195 240.968 257.506 269.274 288.086 289.369 284.703 274.075 257.712 235.856 208.927 177.489 142.206 103.848 63.2252 21.2291 281.051 282.203 277.566 267.154 251.143 229.804 203.537 172.887 138.512 101.144 61.5786 20.6753 275.856 276.932 272.327 262.055 246.321 225.367 199.578 169.511 135.794 99.1608 60.3703 20.2671 -21.2291 -63.2252 -103.848 -142.206 -177.489 -208.927 -235.856 -257.712 -274.075 -284.703 -289.369 -288.086 -20.6753 -61.5786 -101.144 -138.512 -172.887 -203.537 -229.804 -251.143 -267.154 -277.566 -282.203 -281.051 -20.2671 -60.3703 -99.1608 -135.794 -169.511 -199.578 -225.367 -246.321 -262.055 -272.327 -276.932 -275.856 -281.038 -268.534 -251.016 -229.147 -203.685 -175.44 -145.459 -114.82 -84.7138 -56.328 -30.8683 -8.00835 -274.286 -262.217 -245.285 -224.083 -199.355 -171.946 -142.807 -113.009 -83.6753 -55.9967 -30.97 -7.14623 -269.274 -257.506 -240.968 -220.195 -195.944 -169.058 -140.446 -111.128 -82.2066 -54.8516 -30.2153 -7.81029 8.12286 23.5214 38.2145 51.8688 64.3091 75.4078 85.0299 93.0733 99.4299 104.068 106.944 108.021 7.92749 22.6791 36.8729 50.0819 62.1263 72.8665 82.1803 89.9601 96.13 100.628 103.41 104.46 7.63809 22.0822 35.8691 48.6905 60.3938 70.822 79.8628 87.4169 93.416 97.7936 100.491 101.508 107.316 104.863 100.708 94.927 87.6482 78.9764 69.0513 58.0367 46.1089 33.4616 20.2879 6.79804 103.787 101.422 97.4061 91.824 84.783 76.397 66.798 56.1427 44.6065 32.3718 19.6281 6.57682 100.86 98.5648 94.6639 89.2362 82.3978 74.2505 64.9194 54.5649 43.3522 31.4637 19.078 6.39182 -6.79804 -20.2879 -33.4616 -46.1089 -58.0367 -69.0513 -78.9764 -87.6482 -94.927 -100.708 -104.863 -107.316 -6.57682 -19.6281 -32.3718 -44.6065 -56.1427 -66.798 -76.397 -84.783 -91.824 -97.4061 -101.422 -103.787 -6.39182 -19.078 -31.4637 -43.3522 -54.5649 -64.9194 -74.2505 -82.3978 -89.2362 -94.6639 -98.5648 -100.86 -108.021 -106.944 -104.068 -99.4299 -93.0733 -85.0299 -75.4078 -64.3091 -51.8688 -38.2145 -23.5214 -8.12286 -104.46 -103.41 -100.628 -96.13 -89.9601 -82.1803 -72.8665 -62.1263 -50.0819 -36.8729 -22.6791 -7.92749 -101.508 -100.491 -97.7936 -93.416 -87.4169 -79.8628 -70.822 -60.3938 -48.6905 -35.8691 -22.0822 -7.63809 
</DataArray>
<DataArray Name="Stress_33" format="ascii" type="Float64">
0 0 0 0 0 0 0 0 0 0 0 0 0 0 0 0 0 0 0 0 0 0 0 0 0 0 0 0 0 0 0 0 0 0 0 0 0 0 0 0 0 0 0 0 0 0 0 0 0 0 0 0 0 0 0 0 0 0 0 0 0 0 0 0 0 0 0 0 0 0 0 0 0 0 0 0 0 0 0 0 0 0 0 0 0 0 0 0 0 0 0 0 0 0 0 0 0 0 0 0 0 0 0 0 0 0 0 0 0 0 0 0 0 0 0 0 0 0 0 0 0 0 0 0 0 0 0 0 0 0 0 0 0 0 0 0 0 0 0 0 0 0 0 0 0 0 0 0 0 0 0 0 0 0 0 0 0 0 0 0 0 0 0 0 0 0 0 0 0 0 0 0 0 0 0 0 0 0 0 0 0 0 0 0 0 0 0 0 0 0 0 0 0 0 0 0 0 0 0 0 0 0 0 0 0 0 0 0 0 0 0 0 0 0 0 0 0 0 0 0 0 0 0 0 0 0 0 0 0 0 0 0 0 0 0 0 0 0 0 0 0 0 0 0 0 0 0 0 0 0 0 0 0 0 0 0 0 0 0 0 0 0 0 0 0 0 0 0 0 0 0 0 0 0 0 0 0 0 0 0 0 0 0 0 0 0 0 0 
</DataArray>
</CellData>
<Points>
<DataArray NumberOfComponents="3" format="ascii" type="Float64">
0 0.09 0 -0.06364 0.06364 0 -0.005886 0.089807 0 -0.011747 0.08923 0 -0.017558 0.088271 0 -0.023294 0.086933 0 -0.02893 0.085224 0 -0.034442 0.083149 0 -0.039806 0.080719 0 -0.045 0.077942 0 -0.050001 0.074832 0 -0.054789 0.071402 0 -0.059341 0.067666 0 -0.065997 0.065997 0 0 0.093333 0 -0.006104 0.093133 0 -0.012182 0.092535 0 -0.018208 0.09154 0 -0.024156 0.090153 0 -0.030001 0.08838 0 -0.035717 0.086229 0 -0.04128 0.083708 0 -0.046667 0.080829 0 -0.051853 0.077604 0 -0.056818 0.074046 0 -0.061539 0.070172 0 -0.068354 0.068354 0 0 0.096667 0 -0.006322 0.09646 0 -0.012618 0.09584 0 -0.018859 0.094809 0 -0.025019 0.093373 0 -0.031072 0.091537 0 -0.036993 0.089308 0 -0.042755 0.086698 0 -0.048333 0.083716 0 -0.053705 0.080375 0 -0.058847 0.076691 0 -0.063737 0.072678 0 -0.070711 0.070711 0 0 0.1 0 -0.00654 0.099786 0 -0.013053 0.099144 0 -0.019509 0.098079 0 -0.025882 0.096593 0 -0.032144 0.094693 0 -0.038268 0.092388 0 -0.044229 0.089687 0 -0.05 0.086603 0 -0.055557 0.083147 0 -0.060876 0.079335 0 -0.065935 0.075184 0 -0.09 0 0 -0.067666 0.059341 0 -0.071402 0.054789 0 -0.074832 0.050001 0 -0.077942 0.045 0 -0.080719 0.039806 0 -0.083149 0.034442 0 -0.085224 0.02893 0 -0.086933 0.023294 0 -0.088271 0.017558 0 -0.08923 0.011747 0 -0.089807 0.005886 0 -0.093333 0 0 -0.070172 0.061539 0 -0.074046 0.056818 0 -0.077604 0.051853 0 -0.080829 0.046667 0 -0.083708 0.04128 0 -0.086229 0.035717 0 -0.08838 0.030001 0 -0.090153 0.024156 0 -0.09154 0.018208 0 -0.092535 0.012182 0 -0.093133 0.006104 0 -0.096667 0 0 -0.072678 0.063737 0 -0.076691 0.058847 0 -0.080375 0.053705 0 -0.083716 0.048333 0 -0.086698 0.042755 0 -0.089308 0.036993 0 -0.091537 0.031072 0 -0.093373 0.025019 0 -0.094809 0.018859 0 -0.09584 0.012618 0 -0.09646 0.006322 0 -0.1 0 0 -0.075184 0.065935 0 -0.079335 0.060876 0 -0.083147 0.055557 0 -0.086603 0.05 0 -0.089687 0.044229 0 -0.092388 0.038268 0 -0.094693 0.032144 0 -0.096593 0.025882 0 -0.098079 0.019509 0 -0.099144 0.013053 0 -0.099786 0.00654 0 -0.06364 -0.06364 0 -0.089807 -0.005886 0 -0.08923 -0.011747 0 -0.088271 -0.017558 0 -0.086933 -0.023294 0 -0.085224 -0.02893 0 -0.083149 -0.034442 0 -0.080719 -0.039806 0 -0.077942 -0.045 0 -0.074832 -0.050001 0 -0.071402 -0.054789 0 -0.067666 -0.059341 0 -0.065997 -0.065997 0 -0.093133 -0.006104 0 -0.092535 -0.012182 0 -0.09154 -0.018208 0 -0.090153 -0.024156 0 -0.08838 -0.030001 0 -0.086229 -0.035717 0 -0.083708 -0.04128 0 -0.080829 -0.046667 0 -0.077604 -0.051853 0 -0.074046 -0.056818 0 -0.070172 -0.061539 0 -0.068354 -0.068354 0 -0.09646 -0.006322 0 -0.09584 -0.012618 0 -0.094809 -0.018859 0 -0.093373 -0.025019 0 -0.091537 -0.031072 0 -0.089308 -0.036993 0 -0.086698 -0.042755 0 -0.083716 -0.048333 0 -0.080375 -0.053705 0 -0.076691 -0.058847 0 -0.072678 -0.063737 0 -0.070711 -0.070711 0 -0.099786 -0.00654 0 -0.099144 -0.013053 0 -0.098079 -0.019509 0 -0.096593 -0.025882 0 -0.094693 -0.032144 0 -0.092388 -0.038268 0 -0.089687 -0.044229 0 -0.086603 -0.05 0 -0.083147 -0.055557 0 -0.079335 -0.060876 0 -0.075184 -0.065935 0 0 -0.09 0 -0.059341 -0.067666 0 -0.054789 -0.071402 0 -0.050001 -0.074832 0 -0.045 -0.077942 0 -0.039806 -0.080719 0 -0.034442 -0.083149 0 -0.02893 -0.085224 0 -0.023294 -0.086933 0 -0.017558 -0.088271 0 -0.011747 -0.08923 0 -0.005886 -0.089807 0 0 -0.093333 0 -0.061539 -0.070172 0 -0.056818 -0.074046 0 -0.051853 -0.077604 0 -0.046667 -0.080829 0 -0.04128 -0.083708 0 -0.035717 -0.086229 0 -0.030001 -0.08838 0 -0.024156 -0.090153 0 -0.018208 -0.09154 0 -0.012182 -0.092535 0 -0.006104 -0.093133 0 0 -0.096667 0 -0.063737 -0.072678 0 -0.058847 -0.076691 0 -0.053705 -0.080375 0 -0.048333 -0.083716 0 -0.042755 -0.086698 0 -0.036993 -0.089308 0 -0.031072 -0.091537 0 -0.025019 -0.093373 0 -0.018859 -0.094809 0 -0.012618 -0.09584 0 -0.006322 -0.09646 0 0 -0.1 0 -0.065935 -0.075184 0 -0.060876 -0.079335 0 -0.055557 -0.083147 0 -0.05 -0.086603 0 -0.044229 -0.089687 0 -0.038268 -0.092388 0 -0.032144 -0.094693 0 -0.025882 -0.096593 0 -0.019509 -0.098079 0 -0.013053 -0.099144 0 -0.00654 -0.099786 0 0.06364 -0.06364 0 0.005886 -0.089807 0 0.011747 -0.08923 0 0.017558 -0.088271 0 0.023294 -0.086933 0 0.02893 -0.085224 0 0.034442 -0.083149 0 0.039806 -0.080719 0 0.045 -0.077942 0 0.050001 -0.074832 0 0.054789 -0.071402 0 0.059341 -0.067666 0 0.065997 -0.065997 0 0.006104 -0.093133 0 0.012182 -0.092535 0 0.018208 -0.09154 0 0.024156 -0.090153 0 0.030001 -0.08838 0 0.035717 -0.086229 0 0.04128 -0.083708 0 0.046667 -0.080829 0 0.051853 -0.077604 0 0.056818 -0.074046 0 0.061539 -0.070172 0 0.068354 -0.068354 0 0.006322 -0.09646 0 0.012618 -0.09584 0 0.018859 -0.094809 0 0.025019 -0.093373 0 0.031072 -0.091537 0 0.036993 -0.089308 0 0.042755 -0.086698 0 0.048333 -0.083716 0 0.053705 -0.080375 0 0.058847 -0.076691 0 0.063737 -0.072678 0 0.070711 -0.070711 0 0.00654 -0.099786 0 0.013053 -0.099144 0 0.019509 -0.098079 0 0.025882 -0.096593 0 0.032144 -0.094693 0 0.038268 -0.092388 0 0.044229 -0.089687 0 0.05 -0.086603 0 0.055557 -0.083147 0 0.060876 -0.079335 0 0.065935 -0.075184 0 0.09 0 0 0.067666 -0.059341 0 0.071402 -0.054789 0 0.074832 -0.050001 0 0.077942 -0.045 0 0.080719 -0.039806 0 0.083149 -0.034442 0 0.085224 -0.02893 0 0.086933 -0.023294 0 0.088271 -0.017558 0 0.08923 -0.011747 0 0.089807 -0.005886 0 0.093333 0 0 0.070172 -0.061539 0 0.074046 -0.056818 0 0.077604 -0.051853 0 0.080829 -0.046667 0 0.083708 -0.04128 0 0.086229 -0.035717 0 0.08838 -0.030001 0 0.090153 -0.024156 0 0.09154 -0.018208 0 0.092535 -0.012182 0 0.093133 -0.006104 0 0.096667 0 0 0.072678 -0.063737 0 0.076691 -0.058847 0 0.080375 -0.053705 0 0.083716 -0.048333 0 0.086698 -0.042755 0 0.089308 -0.036993 0 0.091537 -0.031072 0 0.093373 -0.025019 0 0.094809 -0.018859 0 0.09584 -0.012618 0 0.09646 -0.006322 0 0.1 0 0 0.075184 -0.065935 0 0.079335 -0.060876 0 0.083147 -0.055557 0 0.086603 -0.05 0 0.089687 -0.044229 0 0.092388 -0.038268 0 0.094693 -0.032144 0 0.096593 -0.025882 0 0.098079 -0.019509 0 0.099144 -0.013053 0 0.099786 -0.00654 0 0.06364 0.06364 0 0.089807 0.005886 0 0.08923 0.011747 0 0.088271 0.017558 0 0.086933 0.023294 0 0.085224 0.02893 0 0.083149 0.034442 0 0.080719 0.039806 0 0.077942 0.045 0 0.074832 0.050001 0 0.071402 0.054789 0 0.067666 0.059341 0 0.065997 0.065997 0 0.093133 0.006104 0 0.092535 0.012182 0 0.09154 0.018208 0 0.090153 0.024156 0 0.08838 0.030001 0 0.086229 0.035717 0 0.083708 0.04128 0 0.080829 0.046667 0 0.077604 0.051853 0 0.074046 0.056818 0 0.070172 0.061539 0 0.068354 0.068354 0 0.09646 0.006322 0 0.09584 0.012618 0 0.094809 0.018859 0 0.093373 0.025019 0 0.091537 0.031072 0 0.089308 0.036993 0 0.086698 0.042755 0 0.083716 0.048333 0 0.080375 0.053705 0 0.076691 0.058847 0 0.072678 0.063737 0 0.070711 0.070711 0 0.099786 0.00654 0 0.099144 0.013053 0 0.098079 0.019509 0 0.096593 0.025882 0 0.094693 0.032144 0 0.092388 0.038268 0 0.089687 0.044229 0 0.086603 0.05 0 0.083147 0.055557 0 0.079335 0.060876 0 0.075184 0.065935 0 0.059341 0.067666 0 0.054789 0.071402 0 0.050001 0.074832 0 0.045 0.077942 0 0.039806 0.080719 0 0.034442 0.083149 0 0.02893 0.085224 0 0.023294 0.086933 0 0.017558 0.088271 0 0.011747 0.08923 0 0.005886 0.089807 0 0.061539 0.070172 0 0.056818 0.074046 0 0.051853 0.077604 0 0.046667 0.080829 0 0.04128 0.083708 0 0.035717 0.086229 0 0.030001 0.08838 0 0.024156 0.090153 0 0.018208 0.09154 0 0.012182 0.092535 0 0.006104 0.093133 0 0.063737 0.072678 0 0.058847 0.076691 0 0.053705 0.080375 0 0.048333 0.083716 0 0.042755 0.086698 0 0.036993 0.089308 0 0.031072 0.091537 0 0.025019 0.093373 0 0.018859 0.094809 0 0.012618 0.09584 0 0.006322 0.09646 0 0.065935 0.075184 0 0.060876 0.079335 0 0.055557 0.083147 0 0.05 0.086603 0 0.044229 0.089687 0 0.038268 0.092388 0 0.032144 0.094693 0 0.025882 0.096593 0 0.019509 0.098079 0 0.013053 0.099144 0 0.00654 0.099786 0 
</DataArray>
</Points>
<Cells>
<DataArray Name="connectivity" format="ascii" type="Int64">