<?xml version="1.0"?>
<VTKFile byte_order="LittleEndian" type="UnstructuredGrid" version="0.1">
<UnstructuredGrid>
<Piece NumberOfCells="144" NumberOfPoints="196">
<PointData>
<DataArray Name="Warping_X" format="ascii" type="Float64">
-0.0311137 0.0126837 -0.0119206 0.00413105 0.0170295 0.0268044 0.0335556 0.0374149 0.0385724 0.0372445 0.0336946 0.02821 0.0210964 0.0351584 0.0201816 0.0276734 0.00884864 0.0299833 0.047248 0.0606405 0.0702097 0.0760819 0.0784434 0.0775295 0.073628 0.0670599 0.0581934 0.047423 -0.0183426 -0.00501764 0.00151514 0.017997 0.0310785 0.0408159 0.0473127 0.0507212 0.0512385 0.0491126 0.0446199 0.0380719 0.0298088 0.0154868 0.0323744 0.0456173 0.0552864 0.0614912 0.0643973 0.0642285 0.0612404 0.0557402 0.048069 0.0385847 -0.0749411 0.0033086 -0.00668216 -0.0169544 -0.0271716 -0.0370217 -0.0462087 -0.0544677 -0.0615619 -0.067294 -0.0715033 -0.0740756 -0.0845558 -0.0776064 -0.080813 0.0218255 0.00785403 -0.00632612 -0.020302 -0.033677 -0.0460851 -0.0571887 -0.0666961 -0.0743575 -0.0799735 -0.0834032 0.00955676 -0.00169249 -0.0132014 -0.0246082 -0.0355766 -0.045785 -0.0549458 -0.062806 -0.0691498 -0.0738061 -0.0766497 0.0157292 0.0031528 -0.00965874 -0.02232 -0.0344613 -0.045743 -0.0558544 -0.0645179 -0.0715043 -0.0766305 -0.0797606 0.0126837 -0.0740756 -0.0715033 -0.067294 -0.0615619 -0.0544677 -0.0462087 -0.0370217 -0.0271716 -0.0169544 -0.00668216 0.0033086 0.0351584 0.0201816 0.0276734 -0.0834032 -0.0799735 -0.0743575 -0.0666961 -0.0571887 -0.0460851 -0.033677 -0.020302 -0.00632612 0.00785403 0.0218255 -0.0766497 -0.0738061 -0.0691498 -0.062806 -0.0549458 -0.045785 -0.0355766 -0.0246082 -0.0132014 -0.00169249 0.00955676 -0.0797606 -0.0766305 -0.0715043 -0.0645179 -0.0558544 -0.045743 -0.0344613 -0.02232 -0.00965874 0.0031528 0.0157292 -0.0311137 0.0210964 0.02821 0.0336946 0.0372445 0.0385724 0.0374149 0.0335556 0.0268044 0.0170295 0.00413105 -0.0119206 0.00884864 -0.0183426 -0.00501764 0.047423 0.0581934 0.0670599 0.073628 0.0775295 0.0784434 0.0760819 0.0702097 0.0606405 0.047248 0.0299833 0.0298088 0.0380719 0.0446199 0.0491126 0.0512385 0.0507212 0.0473127 0.0408159 0.0310785 0.017997 0.00151514 0.0385847 0.048069 0.0557402 0.0612404 0.0642285 0.0643973 0.0614912 0.0552864 0.0456173 0.0323744 0.0154868 
</DataArray>
<DataArray Name="Warping_Y" format="ascii" type="Float64">
-0.280577 -0.0254669 -0.257914 -0.234237 -0.210018 -0.185645 -0.161509 -0.137965 -0.115353 -0.0939708 -0.0740891 -0.055929 -0.0396789 -0.00798156 -0.0201713 -0.0143417 -0.315939 -0.287546 -0.25821 -0.228366 -0.198496 -0.169075 -0.140549 -0.113322 -0.0877723 -0.0642168 -0.0429314 -0.0241318 -0.292362 -0.304149 -0.267861 -0.242369 -0.216338 -0.190198 -0.164356 -0.139205 -0.1151 -0.092365 -0.0712911 -0.0521108 -0.0350249 -0.277741 -0.250357 -0.222451 -0.194479 -0.16688 -0.140062 -0.114421 -0.0903 -0.0679985 -0.0477776 -0.0298413 3.14438e-14 -0.0133848 -0.0034708 0.00428584 0.00994416 0.0136075 0.0154187 0.0155666 0.0142692 0.0117798 0.00837247 0.0043433 1.7147e-14 2.66633e-14 2.19441e-14 0.0054205 0.0160354 0.0238859 0.0290503 0.0316634 0.0319188 0.0300543 0.0263528 0.0211336 0.014749 0.00757376 -0.00764472 0.0025158 0.0103276 0.0158514 0.0192027 0.0205423 0.0200708 0.0180302 0.0146933 0.0103599 0.00535044 -0.00137502 0.00902065 0.0168606 0.022221 0.0252237 0.0260426 0.0249014 0.0220588 0.017812 0.0124866 0.0064276 0.0254669 -0.0043433 -0.00837247 -0.0117798 -0.0142692 -0.0155666 -0.0154187 -0.0136075 -0.00994416 -0.00428584 0.0034708 0.0133848 0.00798156 0.0201713 0.0143417 -0.00757376 -0.014749 -0.0211336 -0.0263528 -0.0300543 -0.0319188 -0.0316634 -0.0290503 -0.0238859 -0.0160354 -0.0054205 -0.00535044 -0.0103599 -0.0146933 -0.0180302 -0.0200708 -0.0205423 -0.0192027 -0.0158514 -0.0103276 -0.0025158 0.00764472 -0.0064276 -0.0124866 -0.017812 -0.0220588 -0.0249014 -0.0260426 -0.0252237 -0.022221 -0.0168606 -0.00902065 0.00137502 0.280577 0.0396789 0.055929 0.0740891 0.0939708 0.115353 0.137965 0.161509 0.185645 0.210018 0.234237 0.257914 0.315939 0.292362 0.304149 0.0241318 0.0429314 0.0642168 0.0877723 0.113322 0.140549 0.169075 0.198496 0.228366 0.25821 0.287546 0.0350249 0.0521108 0.0712911 0.092365 0.1151 0.139205 0.164356 0.190198 0.216338 0.242369 0.267861 0.0298413 0.0477776 0.0679985 0.0903 0.114421 0.140062 0.16688 0.194479 0.222451 0.250357 0.277741 
</DataArray>
<DataArray Name="Warping_Z" format="ascii" type="Float64">
0 0 0 0 0 0 0 0 0 0 0 0 0 0 0 0 0 0 0 0 0 0 0 0 0 0 0 0 0 0 0 0 0 0 0 0 0 0 0 0 0 0 0 0 0 0 0 0 0 0 0 0 0 0 0 0 0 0 0 0 0 0 0 0 0 0 0 0 0 0 0 0 0 0 0 0 0 0 0 0 0 0 0 0 0 0 0 0 0 0 0 0 0 0 0 0 0 0 0 0 0 0 0 0 0 0 0 0 0 0 0 0 0 0 0 0 0 0 0 0 0 0 0 0 0 0 0 0 0 0 0 0 0 0 0 0 0 0 0 0 0 0 0 0 0 0 0 0 0 0 0 0 0 0 0 0 0 0 0 0 0 0 0 0 0 0 0 0 0 0 0 0 0 0 0 0 0 0 0 0 0 0 0 0 0 0 0 0 0 0 0 0 0 0 0 0 
</DataArray>
</PointData>
<CellData>
<DataArray Name="MaterialId" format="ascii" type="Float64">
1 1 1 1 1 1 1 1 1 1 1 1 1 1 1 1 1 1 1 1 1 1 1 1 1 1 1 1 1 1 1 1 1 1 1 1 1 1 1 1 1 1 1 1 1 1 1 1 1 1 1 1 1 1 1 1 1 1 1 1 1 1 1 1 1 1 1 1 1 1 1 1 1 1 1 1 1 1 1 1 1 1 1 1 1 1 1 1 1 1 1 1 1 1 1 1 1 1 1 1 1 1 1 1 1 1 1 1 1 1 1 1 1 1 1 1 1 1 1 1 1 1 1 1 1 1 1 1 1 1 1 1 1 1 1 1 1 1 1 1 1 1 1 1 
</DataArray>
<DataArray Name="FiberAngle" format="ascii" type="Float64">
0 0 0 0 0 0 0 0 0 0 0 0 0 0 0 0 0 0 0 0 0 0 0 0 0 0 0 0 0 0 0 0 0 0 0 0 0 0 0 0 0 0 0 0 0 0 0 0 0 0 0 0 0 0 0 0 0 0 0 0 0 0 0 0 0 0 0 0 0 0 0 0 0 0 0 0 0 0 0 0 0 0 0 0 0 0 0 0 0 0 0 0 0 0 0 0 0 0 0 0 0 0 0 0 0 0 0 0 0 0 0 0 0 0 0 0 0 0 0 0 0 0 0 0 0 0 0 0 0 0 0 0 0 0 0 0 0 0 0 0 0 0 0 0 
</DataArray>
<DataArray Name="Strain_11" format="ascii" type="Float64">
-3.38232 -3.37881 -3.37317 -3.10014 -3.08753 -3.0729 -2.81897 -2.79605 -2.77296 -2.54048 -2.50863 -2.47621 -2.26638 -2.22552 -2.18388 -1.99784 -1.9479 -1.89714 -1.73601 -1.67706 -1.6172 -1.48201 -1.41413 -1.34527 -1.23696 -1.16021 -1.08253 -1.00186 -0.916414 -0.830053 -0.777746 -0.683768 -0.588937 -0.565575 -0.463283 -0.360249 -0.366203 -0.255907 -0.144984 -0.180508 -0.0625295 0.0558934 -0.009195 0.11601 0.241551 0.146985 0.278986 0.411114 0.287433 0.425688 0.56384 0.411588 0.555408 0.699028 0.518908 0.6677 0.816087 0.608998 0.762017 0.914472 0.681509 0.837943 0.993713 0.736144 0.895202 1.05347 0.772664 0.933486 1.09346 0.790965 0.952683 1.11351 0.790965 0.952683 1.11351 0.772664 0.933486 1.09346 0.736144 0.895202 1.05347 0.681509 0.837943 0.993713 0.608998 0.762017 0.914472 0.518908 0.6677 0.816087 0.411588 0.555408 0.699028 0.287433 0.425688 0.56384 0.146985 0.278986 0.411114 -0.009195 0.11601 0.241551 -0.180508 -0.0625295 0.0558934 -0.366203 -0.255907 -0.144984 -0.565575 -0.463283 -0.360249 -0.777746 -0.683768 -0.588937 -1.00186 -0.916414 -0.830053 -1.23696 -1.16021 -1.08253 -1.48201 -1.41413 -1.34527 -1.73601 -1.67706 -1.6172 -1.99784 -1.9479 -1.89714 -2.26638 -2.22552 -2.18388 -2.54048 -2.50863 -2.47621 -2.81897 -2.79605 -2.77296 -3.10014 -3.08753 -3.0729 -3.38232 -3.37881 -3.37317 
</DataArray>
<DataArray Name="Strain_22" format="ascii" type="Float64">
-3.38861 -3.38339 -3.37882 -3.10183 -3.08569 -3.06977 -2.82211 -2.79555 -2.76976 -2.54467 -2.50814 -2.47194 -2.27141 -2.22478 -2.1788 -2.00329 -1.94711 -1.89152 -1.74163 -1.67615 -1.61144 -1.48736 -1.41317 -1.3397 -1.24168 -1.15927 -1.07753 -1.0056 -0.915462 -0.82601 -0.780102 -0.682879 -0.586188 -0.566232 -0.462467 -0.359133 -0.364875 -0.255189 -0.145787 -0.176966 -0.0619487 0.0529765 -0.00330836 0.116484 0.236325 0.155331 0.279293 0.403538 0.298223 0.425817 0.5539 0.424727 0.55544 0.686783 0.534259 0.667557 0.801705 0.626306 0.76175 0.898186 0.700472 0.837572 0.975823 0.756404 0.894731 1.03431 0.793819 0.932986 1.07343 0.812571 0.952131 1.09305 0.812571 0.952131 1.09305 0.793819 0.932986 1.07343 0.756404 0.894731 1.03431 0.700472 0.837572 0.975823 0.626306 0.76175 0.898186 0.534259 0.667557 0.801705 0.424727 0.55544 0.686783 0.298223 0.425817 0.5539 0.155331 0.279293 0.403538 -0.00330836 0.116484 0.236325 -0.176966 -0.0619487 0.0529765 -0.364875 -0.255189 -0.145787 -0.566232 -0.462467 -0.359133 -0.780102 -0.682879 -0.586188 -1.0056 -0.915462 -0.82601 -1.24168 -1.15927 -1.07753 -1.48736 -1.41317 -1.3397 -1.74163 -1.67615 -1.61144 -2.00329 -1.94711 -1.89152 -2.27141 -2.22478 -2.1788 -2.54467 -2.50814 -2.47194 -2.82211 -2.79555 -2.76976 -3.10183 -3.08569 -3.06977 -3.38861 -3.38339 -3.37882 
</DataArray>
<DataArray Name="Strain_12" format="ascii" type="Float64">
0.00223895 0.00125109 -0.00119828 -0.00099836 0.000670471 0.00156319 0.00166042 0.00102442 -0.00100647 0.0026028 0.000918489 -0.0018699 0.00383337 0.000772958 -0.0030773 0.00532105 0.000638414 -0.00458077 0.00699648 0.000468044 -0.00619148 0.00868361 0.000330875 -0.00792839 0.0104234 0.000157271 -0.009618 0.0120763 -4.42377e-05 -0.0112353 0.0135356 -0.000162233 -0.012734 0.0148001 -0.000329818 -0.0139874 0.0157519 -0.000457805 -0.0149608 0.0163767 -0.000539847 -0.0155877 0.0165957 -0.000643387 -0.0158458 0.016391 -0.000648569 -0.0156961 0.0157798 -0.000710947 -0.0151192 0.0147274 -0.000683837 -0.0141092 0.0132442 -0.000596154 -0.0127618 0.0114275 -0.000577675 -0.0109686 0.00923389 -0.00046049 -0.00888038 0.00680629 -0.000335402 -0.00656339 0.00415732 -0.000208958 -0.00400311 0.00140478 -7.11744e-05 -0.00135333 -0.00140478 7.11744e-05 0.00135333 -0.00415732 0.000208958 0.00400311 -0.00680629 0.000335402 0.00656339 -0.00923389 0.00046049 0.00888038 -0.0114275 0.000577675 0.0109686 -0.0132442 0.000596154 0.0127618 -0.0147274 0.000683837 0.0141092 -0.0157798 0.000710947 0.0151192 -0.016391 0.000648569 0.0156961 -0.0165957 0.000643387 0.0158458 -0.0163767 0.000539847 0.0155877 -0.0157519 0.000457805 0.0149608 -0.0148001 0.000329818 0.0139874 -0.0135356 0.000162233 0.012734 -0.0120763 4.42377e-05 0.0112353 -0.0104234 -0.000157271 0.009618 -0.00868361 -0.000330875 0.00792839 -0.00699648 -0.000468044 0.00619148 -0.00532105 -0.000638414 0.00458077 -0.00383337 -0.000772958 0.0030773 -0.0026028 -0.000918489 0.0018699 -0.00166042 -0.00102442 0.00100647 0.00099836 -0.000670471 -0.00156319 -0.00223895 -0.00125109 0.00119828 
</DataArray>
<DataArray Name="Strain_13" format="ascii" type="Float64">
0 0 0 0 0 0 0 0 0 0 0 0 0 0 0 0 0 0 0 0 0 0 0 0 0 0 0 0 0 0 0 0 0 0 0 0 0 0 0 0 0 0 0 0 0 0 0 0 0 0 0 0 0 0 0 0 0 0 0 0 0 0 0 0 0 0 0 0 0 0 0 0 0 0 0 0 0 0 0 0 0 0 0 0 0 0 0 0 0 0 0 0 0 0 0 0 0 0 0 0 0 0 0 0 0 0 0 0 0 0 0 0 0 0 0 0 0 0 0 0 0 0 0 0 0 0 0 0 0 0 0 0 0 0 0 0 0 0 0 0 0 0 0 0 
</DataArray>
<DataArray Name="Strain_23" format="ascii" type="Float64">
0 0 0 0 0 0 0 0 0 0 0 0 0 0 0 0 0 0 0 0 0 0 0 0 0 0 0 0 0 0 0 0 0 0 0 0 0 0 0 0 0 0 0 0 0 0 0 0 0 0 0 0 0 0 0 0 0 0 0 0 0 0 0 0 0 0 0 0 0 0 0 0 0 0 0 0 0 0 0 0 0 0 0 0 0 0 0 0 0 0 0 0 0 0 0 0 0 0 0 0 0 0 0 0 0 0 0 0 0 0 0 0 0 0 0 0 0 0 0 0 0 0 0 0 0 0 0 0 0 0 0 0 0 0 0 0 0 0 0 0 0 0 0 0 
</DataArray>
<DataArray Name="Strain_33" format="ascii" type="Float64">
1 1 1 1 1 1 1 1 1 1 1 1 1 1 1 1 1 1 1 1 1 1 1 1 1 1 1 1 1 1 1 1 1 1 1 1 1 1 1 1 1 1 1 1 1 1 1 1 1 1 1 1 1 1 1 1 1 1 1 1 1 1 1 1 1 1 1 1 1 1 1 1 1 1 1 1 1 1 1 1 1 1 1 1 1 1 1 1 1 1 1 1 1 1 1 1 1 1 1 1 1 1 1 1 1 1 1 1 1 1 1 1 1 1 1 1 1 1 1 1 1 1 1 1 1 1 1 1 1 1 1 1 1 1 1 1 1 1 1 1 1 1 1 1 
</DataArray>
<DataArray Name="Stress_11" format="ascii" type="Float64">
-442.164 -441.628 -440.876 -402.845 -400.994 -398.927 -363.833 -360.549 -357.266 -325.183 -320.63 -316.022 -287.137 -281.302 -275.398 -249.852 -242.742 -235.558 -213.491 -205.122 -196.674 -178.205 -168.602 -158.911 -144.153 -133.336 -122.435 -111.474 -99.4755 -87.395 -80.308 -67.1653 -53.9427 -50.7926 -36.5444 -22.2258 -23.0469 -7.74492 7.61879 2.80563 19.1093 35.4597 26.6642 43.9034 61.1813 48.4242 66.5344 84.6665 67.9988 86.9047 105.813 85.3077 104.919 124.525 100.275 120.51 140.724 112.842 133.606 154.335 122.959 144.148 165.297 130.583 152.098 173.56 135.68 157.415 179.091 138.234 160.079 181.863 138.234 160.079 181.863 135.68 157.415 179.091 130.583 152.098 173.56 122.959 144.148 165.297 112.842 133.606 154.335 100.275 120.51 140.724 85.3077 104.919 124.525 67.9988 86.9047 105.813 48.4242 66.5344 84.6665 26.6642 43.9034 61.1813 2.80563 19.1093 35.4597 -23.0469 -7.74492 7.61879 -50.7926 -36.5444 -22.2258 -80.308 -67.1653 -53.9427 -111.474 -99.4755 -87.395 -144.153 -133.336 -122.435 -178.205 -168.602 -158.911 -213.491 -205.122 -196.674 -249.852 -242.742 -235.558 -287.137 -281.302 -275.398 -325.183 -320.63 -316.022 -363.833 -360.549 -357.266 -402.845 -400.994 -398.927 -442.164 -441.628 -440.876 
</DataArray>
<DataArray Name="Stress_22" format="ascii" type="Float64">
-442.688 -442.01 -441.346 -402.986 -400.841 -398.666 -364.094 -360.507 -357 -325.532 -320.588 -315.666 -287.556 -281.24 -274.974 -250.306 -242.677 -235.089 -213.959 -205.046 -196.194 -178.652 -168.523 -158.447 -144.546 -133.258 -122.018 -111.785 -99.3961 -87.0581 -80.5043 -67.0913 -53.7135 -50.8474 -36.4764 -22.1328 -22.9362 -7.68508 7.55192 3.10083 19.1577 35.2166 27.1548 43.9429 60.7458 49.1196 66.56 84.0351 68.8979 86.9154 104.984 86.4027 104.921 123.504 101.554 120.498 139.525 114.284 133.584 152.978 124.539 144.117 163.806 132.271 152.059 171.964 137.443 157.373 177.422 140.035 160.033 180.158 140.035 160.033 180.158 137.443 157.373 177.422 132.271 152.059 171.964 124.539 144.117 163.806 114.284 133.584 152.978 101.554 120.498 139.525 86.4027 104.921 123.504 68.8979 86.9154 104.984 49.1196 66.56 84.0351 27.1548 43.9429 60.7458 3.10083 19.1577 35.2166 -22.9362 -7.68508 7.55192 -50.8474 -36.4764 -22.1328 -80.5043 -67.0913 -53.7135 -111.785 -99.3961 -87.0581 -144.546 -133.258 -122.018 -178.652 -168.523 -158.447 -213.959 -205.046 -196.194 -250.306 -242.677 -235.089 -287.556 -281.24 -274.974 -325.532 -320.588 -315.666 -364.094 -360.507 -357 -402.986 -400.841 -398.666 -442.688 -442.01 -441.346 
</DataArray>
<DataArray Name="Stress_12" format="ascii" type="Float64">
0.0932903 0.0521292 -0.0499289 -0.0415987 0.0279365 0.0651335 0.0691846 0.0426846 -0.0419368 0.108451 0.0382707 -0.0779129 0.159725 0.0322068 -0.128222 0.221712 0.0266008 -0.190867 0.291522 0.019502 -0.25798 0.36182 0.0137866 -0.330352 0.434312 0.006553 -0.400753 0.503183 -0.00184325 -0.46814 0.56399 -0.00675976 -0.530588 0.616676 -0.0137425 -0.582813 0.656333 -0.0190753 -0.623371 0.68237 -0.0224938 -0.649492 0.691491 -0.026808 -0.660247 0.682964 -0.0270239 -0.654007 0.657499 -0.029623 -0.629972 0.613647 -0.0284934 -0.587888 0.551844 -0.0248399 -0.531746 0.476148 -0.02407 -0.457029 0.384749 -0.0191872 -0.370019 0.283598 -0.0139752 -0.273477 0.173223 -0.00870667 -0.166797 0.0585331 -0.00296562 -0.0563892 -0.0585331 0.00296562 0.0563892 -0.173223 0.00870667 0.166797 -0.283598 0.0139752 0.273477 -0.384749 0.0191872 0.370019 -0.476148 0.02407 0.457029 -0.551844 0.0248399 0.531746 -0.613647 0.0284934 0.587888 -0.657499 0.029623 0.629972 -0.682964 0.0270239 0.654007 -0.691491 0.026808 0.660247 -0.68237 0.0224938 0.649492 -0.656333 0.0190753 0.623371 -0.616676 0.0137425 0.582813 -0.56399 0.00675976 0.530588 -0.503183 0.00184325 0.46814 -0.434312 -0.006553 0.400753 -0.36182 -0.0137866 0.330352 -0.291522 -0.019502 0.25798 -0.221712 -0.0266008 0.190867 -0.159725 -0.0322068 0.128222 -0.108451 -0.0382707 0.0779129 -0.0691846 -0.0426846 0.0419368 0.0415987 -0.0279365 -0.0651335 -0.0932903 -0.0521292 0.0499289 
</DataArray>
<DataArray Name="Stress_13" format="ascii" type="Float64">
0 0 0 0 0 0 0 0 0 0 0 0 0 0 0 0 0 0 0 0 0 0 0 0 0 0 0 0 0 0 0 0 0 0 0 0 0 0 0 0 0 0 0 0 0 0 0 0 0 0 0 0 0 0 0 0 0 0 0 0 0 0 0 0 0 0 0 0 0 0 0 0 0 0 0 0 0 0 0 0 0 0 0 0 0 0 0 0 0 0 0 0 0 0 0 0 0 0 0 0 0 0 0 0 0 0 0 0 0 0 0 0 0 0 0 0 0 0 0 0 0 0 0 0 0 0 0 0 0 0 0 0 0 0 0 0 0 0 0 0 0 0 0 0 
</DataArray>
<DataArray Name="Stress_23" format="ascii" type="Float64">
0 0 0 0 0 0 0 0 0 0 0 0 0 0 0 0 0 0 0 0 0 0 0 0 0 0 0 0 0 0 0 0 0 0 0 0 0 0 0 0 0 0 0 0 0 0 0 0 0 0 0 0 0 0 0 0 0 0 0 0 0 0 0 0 0 0 0 0 0 0 0 0 0 0 0 0 0 0 0 0 0 0 0 0 0 0 0 0 0 0 0 0 0 0 0 0 0 0 0 0 0 0 0 0 0 0 0 0 0 0 0 0 0 0 0 0 0 0 0 0 0 0 0 0 0 0 0 0 0 0 0 0 0 0 0 0 0 0 0 0 0 0 0 0 
</DataArray>
<DataArray Name="Stress_33" format="ascii" type="Float64">
-76.9704 -76.7275 -76.4443 -61.1661 -60.3671 -59.5187 -45.5854 -44.2113 -42.8533 -30.1431 -28.2436 -26.3376 -14.9385 -12.5085 -10.0743 -0.0314968 2.91615 5.87053 14.5099 17.9665 21.4266 28.6286 32.575 36.5285 42.2602 46.6812 51.1095 55.3484 60.2257 65.1094 67.8375 73.1487 78.4688 79.672 85.3959 91.1283 90.8034 96.914 103.034 101.181 107.653 114.135 110.764 117.569 124.385 119.509 126.619 133.74 127.379 134.764 142.159 134.342 141.968 149.606 140.366 148.202 156.05 145.425 153.438 161.463 149.499 157.653 165.82 152.571 160.831 169.105 154.625 162.958 171.303 155.654 164.023 172.404 155.654 164.023 172.404 154.625 162.958 171.303 152.571 160.831 169.105 149.499 157.653 165.82 145.425 153.438 161.463 140.366 148.202 156.05 134.342 141.968 149.606 127.379 134.764 142.159 119.509 126.619 133.74 110.764 117.569 124.385 101.181 107.653 114.135 90.8034 96.914 103.034 79.672 85.3959 91.1283 67.8375 73.1487 78.4688 55.3484 60.2257 65.1094 42.2602 46.6812 51.1095 28.6286 32.575 36.5285 14.5099 17.9665 21.4266 -0.0314968 2.91615 5.87053 -14.9385 -12.5085 -10.0743 -30.1431 -28.2436 -26.3376 -45.5854 -44.2113 -42.8533 -61.1661 -60.3671 -59.5187 -76.9704 -76.7275 -76.4443 
</DataArray>
</CellData>
<Points>
<DataArray NumberOfComponents="3" format="ascii" type="Float64">
0 0.09 0 -0.06364 0.06364 0 -0.005886 0.089807 0 -0.011747 0.08923 0 -0.017558 0.088271 0 -0.023294 0.086933 0 -0.02893 0.085224 0 -0.034442 0.083149 0 -0.039806 0.080719 0 -0.045 0.077942 0 -0.050001 0.074832 0 -0.054789 0.071402 0 -0.059341 0.067666 0 -0.070711 0.070711 0 -0.065997 0.065997 0 -0.068354 0.068354 0 0 0.1 0 -0.00654 0.099786 0 -0.013053 0.099144 0 -0.019509 0.098079 0 -0.025882 0.096593 0 -0.032144 0.094693 0 -0.038268 0.092388 0 -0.044229 0.089687 0 -0.05 0.086603 0 -0.055557 0.083147 0 -0.060876 0.079335 0 -0.065935 0.075184 0 0 0.093333 0 0 0.096667 0 -0.006104 0.093133 0 -0.012182 0.092535 0 -0.018208 0.09154 0 -0.024156 0.090153 0 -0.030001 0.08838 0 -0.035717 0.086229 0 -0.04128 0.083708 0 -0.046667 0.080829 0 -0.051853 0.077604 0 -0.056818 0.074046 0 -0.061539 0.070172 0 -0.006322 0.09646 0 -0.012618 0.09584 0 -0.018859 0.094809 0 -0.025019 0.093373 0 -0.031072 0.091537 0 -0.036993 0.089308 0 -0.042755 0.086698 0 -0.048333 0.083716 0 -0.053705 0.080375 0 -0.058847 0.076691 0 -0.063737 0.072678 0 -0.09 0 0 -0.067666 0.059341 0 -0.071402 0.054789 0 -0.074832 0.050001 0 -0.077942 0.045 0 -0.080719 0.039806 0 -0.083149 0.034442 0 -0.085224 0.02893 0 -0.086933 0.023294 0 -0.088271 0.017558 0 -0.08923 0.011747 0 -0.089807 0.005886 0 -0.1 0 0 -0.093333 0 0 -0.096667 0 0 -0.075184 0.065935 0 -0.079335 0.060876 0 -0.083147 0.055557 0 -0.086603 0.05 0 -0.089687 0.044229 0 -0.092388 0.038268 0 -0.094693 0.032144 0 -0.096593 0.025882 0 -0.098079 0.019509 0 -0.099144 0.013053 0 -0.099786 0.00654 0 -0.070172 0.061539 0 -0.074046 0.056818 0 -0.077604 0.051853 0 -0.080829 0.046667 0 -0.083708 0.04128 0 -0.086229 0.035717 0 -0.08838 0.030001 0 -0.090153 0.024156 0 -0.09154 0.018208 0 -0.092535 0.012182 0 -0.093133 0.006104 0 -0.072678 0.063737 0 -0.076691 0.058847 0 -0.080375 0.053705 0 -0.083716 0.048333 0 -0.086698 0.042755 0 -0.089308 0.036993 0 -0.091537 0.031072 0 -0.093373 0.025019 0 -0.094809 0.018859 0 -0.09584 0.012618 0 -0.09646 0.006322 0 -0.06364 -0.06364 0 -0.089807 -0.005886 0 -0.08923 -0.011747 0 -0.088271 -0.017558 0 -0.086933 -0.023294 0 -0.085224 -0.02893 0 -0.083149 -0.034442 0 -0.080719 -0.039806 0 -0.077942 -0.045 0 -0.074832 -0.050001 0 -0.071402 -0.054789 0 -0.067666 -0.059341 0 -0.070711 -0.070711 0 -0.065997 -0.065997 0 -0.068354 -0.068354 0 -0.099786 -0.00654 0 -0.099144 -0.013053 0 -0.098079 -0.019509 0 -0.096593 -0.025882 0 -0.094693 -0.032144 0 -0.092388 -0.038268 0 -0.089687 -0.044229 0 -0.086603 -0.05 0 -0.083147 -0.055557 0 -0.079335 -0.060876 0 -0.075184 -0.065935 0 -0.093133 -0.006104 0 -0.092535 -0.012182 0 -0.09154 -0.018208 0 -0.090153 -0.024156 0 -0.08838 -0.030001 0 -0.086229 -0.035717 0 -0.083708 -0.04128 0 -0.080829 -0.046667 0 -0.077604 -0.051853 0 -0.074046 -0.056818 0 -0.070172 -0.061539 0 -0.09646 -0.006322 0 -0.09584 -0.012618 0 -0.094809 -0.018859 0 -0.093373 -0.025019 0 -0.091537 -0.031072 0 -0.089308 -0.036993 0 -0.086698 -0.042755 0 -0.083716 -0.048333 0 -0.080375 -0.053705 0 -0.076691 -0.058847 0 -0.072678 -0.063737 0 0 -0.09 0 -0.059341 -0.067666 0 -0.054789 -0.071402 0 -0.050001 -0.074832 0 -0.045 -0.077942 0 -0.039806 -0.080719 0 -0.034442 -0.083149 0 -0.02893 -0.085224 0 -0.023294 -0.086933 0 -0.017558 -0.088271 0 -0.011747 -0.08923 0 -0.005886 -0.089807 0 0 -0.1 0 0 -0.093333 0 0 -0.096667 0 -0.065935 -0.075184 0 -0.060876 -0.079335 0 -0.055557 -0.083147 0 -0.05 -0.086603 0 -0.044229 -0.089687 0 -0.038268 -0.092388 0 -0.032144 -0.094693 0 -0.025882 -0.096593 0 -0.019509 -0.098079 0 -0.013053 -0.099144 0 -0.00654 -0.099786 0 -0.061539 -0.070172 0 -0.056818 -0.074046 0 -0.051853 -0.077604 0 -0.046667 -0.080829 0 -0.04128 -0.083708 0 -0.035717 -0.086229 0 -0.030001 -0.08838 0 -0.024156 -0.090153 0 -0.018208 -0.09154 0 -0.012182 -0.092535 0 -0.006104 -0.093133 0 -0.063737 -0.072678 0 -0.058847 -0.076691 0 -0.053705 -0.080375 0 -0.048333 -0.083716 0 -0.042755 -0.086698 0 -0.036993 -0.089308 0 -0.031072 -0.091537 0 -0.025019 -0.093373 0 -0.018859 -0.094809 0 -0.012618 -0.09584 0 -0.006322 -0.09646 0 
</DataArray>
</Points>
<Cells>
<DataArray Name="connectivity" format="ascii" type="Int64">
0 28 30 2 28 29 41 30 29 16 17 41 2 30 31 3 30 41 42 31 41 17 18 42 3 31 32 4 31 42 43 32 42 18 19 43 4 32 33 5 32 43 44 33 43 19 20 44 5 33 34 6 33 44 45 34 44 20 21 45 6 34 35 7 34 45 46 35 45 21 22 46 7 35 36 8 35 46 47 36 46 22 23 47 8 36 37 9 36 47 48 37 47 23 24 48 9 37 38 10 37 48 49 38 48 24 25 49 10 38 39 11 38 49 50 39 49 25 26 50 11 39 40 12 39 50 51 40 50 26 27 51 12 40 14 1 40 51 15 14 51 27 13 15 1 14 78 53 14 15 89 78 15 13 67 89 53 78 79 54 78 89 90 79 89 67 68 90 54 79 80 55 79 90 91 80 90 68 69 91 55 80 81 56 80 91 92 81 91 69 70 92 56 81 82 57 81 92 93 82 92 70 71 93 57 82 83 58 82 93 94 83 93 71 72 94 58 83 84 59 83 94 95 84 94 72 73 95 59 84 85 60 84 95 96 85 95 73 74 96 60 85 86 61 85 96 97 86 96 74 75 97 61 86 87 62 86 97 98 87 97 75 76 98 62 87 88 63 87 98 99 88 98 76 77 99 63 88 65 52 88 99 66 65 99 77 64 66 52 65 126 101 65 66 137 126 66 64 115 137 101 126 127 102 126 137 138 127 137 115 116 138 102 127 128 103 127 138 139 128 138 116 117 139 103 128 129 104 128 139 140 129 139 117 118 140 104 129 130 105 129 140 141 130 140 118 119 141 105 130 131 106 130 141 142 131 141 119 120 142 106 131 132 107 131 142 143 132 142 120 121 143 107 132 133 108 132 143 144 133 143 121 122 144 108 133 134 109 133 144 145 134 144 122 123 145 109 134 135 110 134 145 146 135 145 123 124 146 110 135 136 111 135 146 147 136 146 124 125 147 111 136 113 100 136 147 114 113 147 125 112 114 100 113 174 149 113 114 185 174 114 112 163 185 149 174 175 150 174 185 186 175 185 163 164 186 150 175 176 151 175 186 187 176 186 164 165 187 151 176 177 152 176 187 188 177 187 165 166 188 152 177 178 153 177 188 189 178 188 166 167 189 153 178 179 154 178 189 190 179 189 167 168 190 154 179 180 155 179 190 191 180 190 168 169 191 155 180 181 156 180 191 192 181 191 169 170 192 156 181 182 157 181 192 193 182 192 170 171 193 157 182 183 158 182 193 194 183 193 171 172 194 158 183 184 159 183 194 195 184 194 172 173 195 159 184 161 148 184 195 162 161 195 173 160 162 
</DataArray>
<DataArray Name="offsets" format="ascii" type="Int64">
4 8 12 16 20 24 28 32 36 40 44 48 52 56 60 64 68 72 76 80 84 88 92 96 100 104 108 112 116 120 124 128 132 136 140 144 148 152 156 160 164 168 172 176 180 184 188 192 196 200 204 208 212 216 220 224 228 232 236 240 244 248 252 256 260 264 268 272 276 280 284 288 292 296 300 304 308 312 316 320 324 328 332 336 340 344 348 352 356 360 364 368 372 376 380 384 388 392 396 400 404 408 412 416 420 424 428 432 436 440 444 448 452 456 460 464 468 472 476 480 484 488 492 496 500 504 508 512 516 520 524 528 532 536 540 544 548 552 556 560 564 568 572 576 
</DataArray>
<DataArray Name="types" format="ascii" type="Int8">
9 9 9 9 9 9 9 9 9 9 9 9 9 9 9 9 9 9 9 9 9 9 9 9 9 9 9 9 9 9 9 9 9 9 9 9 9 9 9 9 9 9 9 9 9 9 9 9 9 9 9 9 9 9 9 9 9 9 9 9 9 9 9 9 9 9 9 9 9 9 9 9 9 9 9 9 9 9 9 9 9 9 9 9 9 9 9 9 9 9 9 9 9 9 9 9 9 9 9 9 9 9 9 9 9 9 9 9 9 9 9 9 9 9 9 9 9 9 9 9 9 9 9 9 9 9 9 9 9 9 9 9 9 9 9 9 9 9 9 9 9 9 9 9 
</DataArray>
</Cells>
</Piece>
</UnstructuredGrid>
</VTKFile>
