<?xml version="1.0"?>
<VTKFile byte_order="LittleEndian" type="UnstructuredGrid" version="0.1">
<UnstructuredGrid>
<Piece NumberOfCells="144" NumberOfPoints="196">
<PointData>
<DataArray Name="Warping_X" format="ascii" type="Float64">
-0.142148 -0.160659 -0.394092 -0.5944 -0.743154 -0.841121 -0.89023 -0.892922 -0.852607 -0.773101 -0.659018 -0.515323 -0.347323 -0.4537 -0.258444 -0.356129 -0.802539 -1.07932 -1.29245 -1.44222 -1.52973 -1.55737 -1.52853 -1.44737 -1.31894 -1.14882 -0.943352 -0.709304 -0.353194 -0.573394 -0.613706 -0.818719 -0.968116 -1.06311 -1.1057 -1.09868 -1.04558 -0.950754 -0.819039 -0.655808 -0.466941 -0.842176 -1.05148 -1.20116 -1.29268 -1.32814 -1.31054 -1.2439 -1.13271 -0.982282 -0.798529 -0.587607 1.57949 0.0388838 0.245387 0.45315 0.656457 0.850009 1.02876 1.18823 1.32441 1.43396 1.51415 1.56305 1.8492 1.66047 1.75041 -0.183801 0.0930845 0.369661 0.638917 0.89412 1.1291 1.33813 1.5163 1.65938 1.76399 1.82778 -0.0365978 0.192232 0.421849 0.646091 0.859252 1.05589 1.23111 1.38065 1.50085 1.58883 1.64245 -0.110828 0.141473 0.394014 0.640271 0.873957 1.08931 1.28111 1.44462 1.57599 1.67213 1.73072 -0.160659 1.56305 1.51415 1.43396 1.32441 1.18823 1.02876 0.850009 0.656457 0.45315 0.245387 0.0388838 -0.4537 -0.258444 -0.356129 1.82778 1.76399 1.65938 1.5163 1.33813 1.1291 0.89412 0.638917 0.369661 0.0930845 -0.183801 1.64245 1.58883 1.50085 1.38065 1.23111 1.05589 0.859252 0.646091 0.421849 0.192232 -0.0365978 1.73072 1.67213 1.57599 1.44462 1.28111 1.08931 0.873957 0.640271 0.394014 0.141473 -0.110828 -0.142148 -0.347323 -0.515323 -0.659018 -0.773101 -0.852607 -0.892922 -0.89023 -0.841121 -0.743154 -0.5944 -0.394092 -0.802539 -0.353194 -0.573394 -0.709304 -0.943352 -1.14882 -1.31894 -1.44737 -1.52853 -1.55737 -1.52973 -1.44222 -1.29245 -1.07932 -0.466941 -0.655808 -0.819039 -0.950754 -1.04558 -1.09868 -1.1057 -1.06311 -0.968116 -0.818719 -0.613706 -0.587607 -0.798529 -0.982282 -1.13271 -1.2439 -1.31054 -1.32814 -1.29268 -1.20116 -1.05148 -0.842176 
</DataArray>
<DataArray Name="Warping_Y" format="ascii" type="Float64">
3.63925 -0.284407 3.26688 2.88201 2.4924 2.10446 1.72454 1.35846 1.01173 0.689149 0.395063 0.132972 -0.0941644 -0.651719 -0.398038 -0.520496 4.1128 3.64597 3.16831 2.68693 2.20977 1.74464 1.29878 0.878785 0.490736 0.139773 -0.169732 -0.434401 3.79706 3.9549 3.39439 2.97976 2.56062 2.14401 1.73661 1.34482 0.974415 0.630619 0.318105 0.040574 -0.198845 3.5208 3.07513 2.6254 2.17908 1.74333 1.32486 0.930055 0.564502 0.232986 -0.0603453 -0.312278 -2.38745e-13 -0.436426 -0.549814 -0.624934 -0.663019 -0.665997 -0.636484 -0.577845 -0.493947 -0.389243 -0.268538 -0.137003 -1.39809e-13 -2.05749e-13 -1.7313e-13 -0.820265 -0.939616 -1.0104 -1.03417 -1.01339 -0.951553 -0.852876 -0.722312 -0.565438 -0.388385 -0.197635 -0.555641 -0.67123 -0.7453 -0.779112 -0.774794 -0.735283 -0.664147 -0.56565 -0.444592 -0.306201 -0.156062 -0.683608 -0.80121 -0.873784 -0.902834 -0.89064 -0.840318 -0.755843 -0.641788 -0.503344 -0.346177 -0.176278 0.284407 0.137003 0.268538 0.389243 0.493947 0.577845 0.636484 0.665997 0.663019 0.624934 0.549814 0.436426 0.651719 0.398038 0.520496 0.197635 0.388385 0.565438 0.722312 0.852876 0.951553 1.01339 1.03417 1.0104 0.939616 0.820265 0.156062 0.306201 0.444592 0.56565 0.664147 0.735283 0.774794 0.779112 0.7453 0.67123 0.555641 0.176278 0.346177 0.503344 0.641788 0.755843 0.840318 0.89064 0.902834 0.873784 0.80121 0.683608 -3.63925 0.0941644 -0.132972 -0.395063 -0.689149 -1.01173 -1.35846 -1.72454 -2.10446 -2.4924 -2.88201 -3.26688 -4.1128 -3.79706 -3.9549 0.434401 0.169732 -0.139773 -0.490736 -0.878785 -1.29878 -1.74464 -2.20977 -2.68693 -3.16831 -3.64597 0.198845 -0.040574 -0.318105 -0.630619 -0.974415 -1.34482 -1.73661 -2.14401 -2.56062 -2.97976 -3.39439 0.312278 0.0603453 -0.232986 -0.564502 -0.930055 -1.32486 -1.74333 -2.17908 -2.6254 -3.07513 -3.5208 
</DataArray>
<DataArray Name="Warping_Z" format="ascii" type="Float64">
0 0 0 0 0 0 0 0 0 0 0 0 0 0 0 0 0 0 0 0 0 0 0 0 0 0 0 0 0 0 0 0 0 0 0 0 0 0 0 0 0 0 0 0 0 0 0 0 0 0 0 0 0 0 0 0 0 0 0 0 0 0 0 0 0 0 0 0 0 0 0 0 0 0 0 0 0 0 0 0 0 0 0 0 0 0 0 0 0 0 0 0 0 0 0 0 0 0 0 0 0 0 0 0 0 0 0 0 0 0 0 0 0 0 0 0 0 0 0 0 0 0 0 0 0 0 0 0 0 0 0 0 0 0 0 0 0 0 0 0 0 0 0 0 0 0 0 0 0 0 0 0 0 0 0 0 0 0 0 0 0 0 0 0 0 0 0 0 0 0 0 0 0 0 0 0 0 0 0 0 0 0 0 0 0 0 0 0 0 0 0 0 0 0 0 0 
</DataArray>
</PointData>
<CellData>
<DataArray Name="MaterialId" format="ascii" type="Float64">
1 1 1 1 1 1 1 1 1 1 1 1 1 1 1 1 1 1 1 1 1 1 1 1 1 1 1 1 1 1 1 1 1 1 1 1 1 1 1 1 1 1 1 1 1 1 1 1 1 1 1 1 1 1 1 1 1 1 1 1 1 1 1 1 1 1 1 1 1 1 1 1 1 1 1 1 1 1 1 1 1 1 1 1 1 1 1 1 1 1 1 1 1 1 1 1 1 1 1 1 1 1 1 1 1 1 1 1 1 1 1 1 1 1 1 1 1 1 1 1 1 1 1 1 1 1 1 1 1 1 1 1 1 1 1 1 1 1 1 1 1 1 1 1 
</DataArray>
<DataArray Name="FiberAngle" format="ascii" type="Float64">
0 0 0 0 0 0 0 0 0 0 0 0 0 0 0 0 0 0 0 0 0 0 0 0 0 0 0 0 0 0 0 0 0 0 0 0 0 0 0 0 0 0 0 0 0 0 0 0 0 0 0 0 0 0 0 0 0 0 0 0 0 0 0 0 0 0 0 0 0 0 0 0 0 0 0 0 0 0 0 0 0 0 0 0 0 0 0 0 0 0 0 0 0 0 0 0 0 0 0 0 0 0 0 0 0 0 0 0 0 0 0 0 0 0 0 0 0 0 0 0 0 0 0 0 0 0 0 0 0 0 0 0 0 0 0 0 0 0 0 0 0 0 0 0 
</DataArray>
<DataArray Name="Strain_11" format="ascii" type="Float64">
44.8121 44.754 44.6609 40.149 39.9405 39.6988 35.5024 35.1238 34.7421 30.9004 30.3741 29.8383 26.3707 25.6956 25.0074 21.933 21.1078 20.269 17.6063 16.632 15.6428 13.4087 12.287 11.1491 9.35917 8.09083 6.80723 5.47416 4.0621 2.63495 1.77056 0.217542 -1.34957 -1.73564 -3.42606 -5.12873 -5.03033 -6.85301 -8.68605 -8.09901 -10.0486 -12.0056 -10.93 -12.9991 -15.0737 -13.5109 -15.6923 -17.8758 -15.8319 -18.1166 -20.3996 -17.8836 -20.2603 -22.6336 -19.6571 -22.1159 -24.5681 -21.1459 -23.6746 -26.1939 -22.3441 -24.9293 -27.5034 -23.247 -25.8755 -28.4909 -23.8505 -26.5081 -29.1518 -24.1529 -26.8254 -29.4831 -24.1529 -26.8254 -29.4831 -23.8505 -26.5081 -29.1518 -23.247 -25.8755 -28.4909 -22.3441 -24.9293 -27.5034 -21.1459 -23.6746 -26.1939 -19.6571 -22.1159 -24.5681 -17.8836 -20.2603 -22.6336 -15.8319 -18.1166 -20.3996 -13.5109 -15.6923 -17.8758 -10.93 -12.9991 -15.0737 -8.09901 -10.0486 -12.0056 -5.03033 -6.85301 -8.68605 -1.73564 -3.42606 -5.12873 1.77056 0.217542 -1.34957 5.47416 4.0621 2.63495 9.35917 8.09083 6.80723 13.4087 12.287 11.1491 17.6063 16.632 15.6428 21.933 21.1078 20.269 26.3707 25.6956 25.0074 30.9004 30.3741 29.8383 35.5024 35.1238 34.7421 40.149 39.9405 39.6988 44.8121 44.754 44.6609 
</DataArray>
<DataArray Name="Strain_22" format="ascii" type="Float64">
44.916 44.8296 44.7542 40.1769 39.9101 39.6471 35.5543 35.1155 34.6893 30.9696 30.3659 29.7677 26.4538 25.6833 24.9234 22.0231 21.0948 20.176 17.6991 16.617 15.5477 13.4972 12.2712 11.0571 9.43718 8.07537 6.72455 5.53585 4.04635 2.56813 1.80949 0.20285 -1.39501 -1.72478 -3.43954 -5.14717 -5.05228 -6.86488 -8.67279 -8.15755 -10.0582 -11.9574 -11.0273 -13.0069 -14.9873 -13.6489 -15.6974 -17.7506 -16.0102 -18.1187 -20.2353 -18.1007 -20.2608 -22.4313 -19.9108 -22.1136 -24.3304 -21.4319 -23.6701 -25.9248 -22.6575 -24.9231 -27.2078 -23.5818 -25.8677 -28.1742 -24.2001 -26.4999 -28.8208 -24.51 -26.8163 -29.1449 -24.51 -26.8163 -29.1449 -24.2001 -26.4999 -28.8208 -23.5818 -25.8677 -28.1742 -22.6575 -24.9231 -27.2078 -21.4319 -23.6701 -25.9248 -19.9108 -22.1136 -24.3304 -18.1007 -20.2608 -22.4313 -16.0102 -18.1187 -20.2353 -13.6489 -15.6974 -17.7506 -11.0273 -13.0069 -14.9873 -8.15755 -10.0582 -11.9574 -5.05228 -6.86488 -8.67279 -1.72478 -3.43954 -5.14717 1.80949 0.20285 -1.39501 5.53585 4.04635 2.56813 9.43718 8.07537 6.72455 13.4972 12.2712 11.0571 17.6991 16.617 15.5477 22.0231 21.0948 20.176 26.4538 25.6833 24.9234 30.9696 30.3659 29.7677 35.5543 35.1155 34.6893 40.1769 39.9101 39.6471 44.916 44.8296 44.7542 
</DataArray>
<DataArray Name="Strain_12" format="ascii" type="Float64">
-0.0369994 -0.0206747 0.019802 0.0164982 -0.0110798 -0.0258323 -0.027439 -0.0169289 0.0166323 -0.0430122 -0.0151783 0.0309007 -0.0633478 -0.0127734 0.0508534 -0.0879322 -0.01055 0.0756988 -0.115619 -0.00773458 0.102316 -0.1435 -0.00546783 0.131019 -0.17225 -0.00259895 0.158941 -0.199565 0.000731043 0.185667 -0.223681 0.00268096 0.210434 -0.244577 0.00545035 0.231146 -0.260305 0.00756538 0.247232 -0.270631 0.00892115 0.257592 -0.274249 0.0106322 0.261857 -0.270867 0.0107178 0.259383 -0.260767 0.0117487 0.24985 -0.243376 0.0113006 0.233159 -0.218864 0.00985164 0.210893 -0.188843 0.00954627 0.18126 -0.152593 0.00760976 0.146751 -0.112476 0.00554264 0.108462 -0.0687012 0.00345311 0.0661527 -0.0232145 0.00117618 0.0223643 0.0232145 -0.00117618 -0.0223643 0.0687012 -0.00345311 -0.0661527 0.112476 -0.00554264 -0.108462 0.152593 -0.00760976 -0.146751 0.188843 -0.00954627 -0.18126 0.218864 -0.00985164 -0.210893 0.243376 -0.0113006 -0.233159 0.260767 -0.0117487 -0.24985 0.270867 -0.0107178 -0.259383 0.274249 -0.0106322 -0.261857 0.270631 -0.00892115 -0.257592 0.260305 -0.00756538 -0.247232 0.244577 -0.00545035 -0.231146 0.223681 -0.00268096 -0.210434 0.199565 -0.000731043 -0.185667 0.17225 0.00259895 -0.158941 0.1435 0.00546783 -0.131019 0.115619 0.00773458 -0.102316 0.0879322 0.01055 -0.0756988 0.0633478 0.0127734 -0.0508534 0.0430122 0.0151783 -0.0309007 0.027439 0.0169289 -0.0166323 -0.0164982 0.0110798 0.0258323 0.0369994 0.0206747 -0.019802 
</DataArray>
<DataArray Name="Strain_13" format="ascii" type="Float64">
0 0 0 0 0 0 0 0 0 0 0 0 0 0 0 0 0 0 0 0 0 0 0 0 0 0 0 0 0 0 0 0 0 0 0 0 0 0 0 0 0 0 0 0 0 0 0 0 0 0 0 0 0 0 0 0 0 0 0 0 0 0 0 0 0 0 0 0 0 0 0 0 0 0 0 0 0 0 0 0 0 0 0 0 0 0 0 0 0 0 0 0 0 0 0 0 0 0 0 0 0 0 0 0 0 0 0 0 0 0 0 0 0 0 0 0 0 0 0 0 0 0 0 0 0 0 0 0 0 0 0 0 0 0 0 0 0 0 0 0 0 0 0 0 
</DataArray>
<DataArray Name="Strain_23" format="ascii" type="Float64">
0 0 0 0 0 0 0 0 0 0 0 0 0 0 0 0 0 0 0 0 0 0 0 0 0 0 0 0 0 0 0 0 0 0 0 0 0 0 0 0 0 0 0 0 0 0 0 0 0 0 0 0 0 0 0 0 0 0 0 0 0 0 0 0 0 0 0 0 0 0 0 0 0 0 0 0 0 0 0 0 0 0 0 0 0 0 0 0 0 0 0 0 0 0 0 0 0 0 0 0 0 0 0 0 0 0 0 0 0 0 0 0 0 0 0 0 0 0 0 0 0 0 0 0 0 0 0 0 0 0 0 0 0 0 0 0 0 0 0 0 0 0 0 0 
</DataArray>
<DataArray Name="Strain_33" format="ascii" type="Float64">
0.0029975 0.0031065 0.0032155 0.00897975 0.0093065 0.00963325 0.0149237 0.0154668 0.0160097 0.020804 0.0215605 0.0223173 0.0265952 0.027562 0.0285293 0.0322725 0.0334457 0.0346192 0.0378112 0.0391862 0.0405612 0.0431882 0.0447587 0.0463293 0.0483802 0.0501395 0.0518988 0.0533653 0.0553058 0.0572462 0.0581217 0.0602353 0.0623487 0.0626292 0.0649067 0.0671843 0.0668688 0.0693003 0.0717317 0.0708215 0.0733967 0.075972 0.074471 0.077179 0.079887 0.0778018 0.080631 0.0834602 0.0807995 0.0837377 0.086676 0.0834513 0.0864858 0.0895203 0.0857455 0.0888635 0.0919815 0.0876725 0.0908607 0.094049 0.0892242 0.0924688 0.0957135 0.090394 0.093681 0.096968 0.0911762 0.094492 0.0978075 0.0915682 0.0948983 0.0982283 0.0915682 0.0948982 0.0982283 0.0911763 0.094492 0.0978075 0.090394 0.093681 0.096968 0.0892242 0.0924687 0.0957135 0.0876725 0.0908608 0.094049 0.0857455 0.0888635 0.0919815 0.0834513 0.0864858 0.0895202 0.0807995 0.0837377 0.086676 0.0778018 0.080631 0.0834602 0.074471 0.077179 0.079887 0.0708215 0.0733968 0.075972 0.0668688 0.0693003 0.0717317 0.0626292 0.0649067 0.0671843 0.0581217 0.0602352 0.0623487 0.0533652 0.0553058 0.0572462 0.0483802 0.0501395 0.0518988 0.0431882 0.0447587 0.0463293 0.0378112 0.0391862 0.0405613 0.0322725 0.0334457 0.0346192 0.0265952 0.027562 0.0285292 0.020804 0.0215605 0.0223173 0.0149237 0.0154668 0.0160097 0.00897975 0.0093065 0.00963325 0.0029975 0.0031065 0.0032155 
</DataArray>
<DataArray Name="Stress_11" format="ascii" type="Float64">
6226.87 6218.02 6205.58 5577.27 5546.71 5512.55 4932.75 4878.5 4824.27 4294.22 4218.99 4142.87 3665.64 3569.25 3471.71 3049.65 2932.21 2813.52 2448.94 2310.67 2171.1 1865.98 1707.33 1547.22 1303.39 1124.69 944.593 763.496 565.279 365.699 248.607 31.4792 -186.971 -239.02 -474.413 -710.969 -697.409 -950.212 -1204.03 -1124.52 -1393.87 -1664 -1518.69 -1803.5 -2088.95 -1878.19 -2177.39 -2476.95 -2201.58 -2513.93 -2826.31 -2487.55 -2811.54 -3135.45 -2734.82 -3069.12 -3403.08 -2942.44 -3285.49 -3627.96 -3109.58 -3459.66 -3809.05 -3235.54 -3591 -3945.58 -3319.75 -3678.83 -4036.95 -3361.95 -3722.86 -4082.75 -3361.95 -3722.86 -4082.75 -3319.75 -3678.83 -4036.95 -3235.54 -3591 -3945.58 -3109.58 -3459.66 -3809.05 -2942.44 -3285.49 -3627.96 -2734.82 -3069.12 -3403.08 -2487.55 -2811.54 -3135.45 -2201.58 -2513.93 -2826.31 -1878.19 -2177.39 -2476.95 -1518.69 -1803.5 -2088.95 -1124.52 -1393.87 -1664 -697.409 -950.212 -1204.03 -239.02 -474.413 -710.969 248.607 31.4792 -186.971 763.496 565.279 365.699 1303.39 1124.69 944.593 1865.98 1707.33 1547.22 2448.94 2310.67 2171.1 3049.65 2932.21 2813.52 3665.64 3569.25 3471.71 4294.22 4218.99 4142.87 4932.75 4878.5 4824.27 5577.27 5546.71 5512.55 6226.87 6218.02 6205.58 
</DataArray>
<DataArray Name="Stress_22" format="ascii" type="Float64">
6235.53 6224.32 6213.36 5579.6 5544.17 5508.24 4937.08 4877.81 4819.87 4299.99 4218.31 4136.98 3672.57 3568.24 3464.71 3057.16 2931.12 2805.77 2456.67 2309.42 2163.17 1873.35 1706.02 1539.55 1309.9 1123.4 937.704 768.637 563.967 360.131 251.851 30.2549 -190.758 -238.115 -475.537 -712.506 -699.238 -951.201 -1202.93 -1129.4 -1394.67 -1659.98 -1526.8 -1804.15 -2081.75 -1889.68 -2177.81 -2466.52 -2216.44 -2514.11 -2812.62 -2505.64 -2811.58 -3118.59 -2755.96 -3068.93 -3383.27 -2966.27 -3285.12 -3605.53 -3135.69 -3459.15 -3784.41 -3263.44 -3590.35 -3919.19 -3348.88 -3678.14 -4009.37 -3391.7 -3722.1 -4054.57 -3391.7 -3722.1 -4054.57 -3348.88 -3678.14 -4009.37 -3263.44 -3590.35 -3919.19 -3135.69 -3459.15 -3784.41 -2966.27 -3285.12 -3605.53 -2755.96 -3068.93 -3383.27 -2505.64 -2811.58 -3118.59 -2216.44 -2514.11 -2812.62 -1889.68 -2177.81 -2466.52 -1526.8 -1804.15 -2081.75 -1129.4 -1394.67 -1659.98 -699.238 -951.201 -1202.93 -238.115 -475.537 -712.506 251.851 30.2549 -190.758 768.637 563.967 360.131 1309.9 1123.4 937.704 1873.35 1706.02 1539.55 2456.67 2309.42 2163.17 3057.16 2931.12 2805.77 3672.57 3568.24 3464.71 4299.99 4218.31 4136.98 4937.08 4877.81 4819.87 5579.6 5544.17 5508.24 6235.53 6224.32 6213.36 
</DataArray>
<DataArray Name="Stress_12" format="ascii" type="Float64">
-1.54165 -0.861454 0.825092 0.687432 -0.461661 -1.07635 -1.1433 -0.705378 0.69302 -1.79219 -0.632436 1.28754 -2.63951 -0.532229 2.11891 -3.66387 -0.439587 3.15414 -4.81751 -0.322277 4.26322 -5.9792 -0.227828 5.45919 -7.17716 -0.108291 6.62259 -8.31526 0.0304604 7.73617 -9.32012 0.111707 8.76814 -10.1908 0.2271 9.63118 -10.8461 0.315227 10.3014 -11.2764 0.371718 10.7331 -11.4271 0.443012 10.9108 -11.2862 0.446579 10.8077 -10.8654 0.489531 10.4105 -10.1407 0.470864 9.71505 -9.11941 0.410488 8.78728 -7.86851 0.397765 7.55257 -6.3581 0.317076 6.11469 -4.68655 0.230945 4.5193 -2.86257 0.143881 2.75638 -0.967279 0.049008 0.931851 0.967279 -0.049008 -0.931851 2.86257 -0.143881 -2.75638 4.68655 -0.230945 -4.5193 6.3581 -0.317076 -6.11469 7.86851 -0.397765 -7.55257 9.11941 -0.410488 -8.78728 10.1407 -0.470864 -9.71505 10.8654 -0.489531 -10.4105 11.2862 -0.446579 -10.8077 11.4271 -0.443012 -10.9108 11.2764 -0.371718 -10.7331 10.8461 -0.315227 -10.3014 10.1908 -0.2271 -9.63118 9.32012 -0.111707 -8.76814 8.31526 -0.0304604 -7.73617 7.17716 0.108291 -6.62259 5.9792 0.227828 -5.45919 4.81751 0.322277 -4.26322 3.66387 0.439587 -3.15414 2.63951 0.532229 -2.11891 1.79219 0.632436 -1.28754 1.1433 0.705378 -0.69302 -0.687432 0.461661 1.07635 1.54165 0.861454 -0.825092 
</DataArray>
<DataArray Name="Stress_13" format="ascii" type="Float64">
0 0 0 0 0 0 0 0 0 0 0 0 0 0 0 0 0 0 0 0 0 0 0 0 0 0 0 0 0 0 0 0 0 0 0 0 0 0 0 0 0 0 0 0 0 0 0 0 0 0 0 0 0 0 0 0 0 0 0 0 0 0 0 0 0 0 0 0 0 0 0 0 0 0 0 0 0 0 0 0 0 0 0 0 0 0 0 0 0 0 0 0 0 0 0 0 0 0 0 0 0 0 0 0 0 0 0 0 0 0 0 0 0 0 0 0 0 0 0 0 0 0 0 0 0 0 0 0 0 0 0 0 0 0 0 0 0 0 0 0 0 0 0 0 
</DataArray>
<DataArray Name="Stress_23" format="ascii" type="Float64">
0 0 0 0 0 0 0 0 0 0 0 0 0 0 0 0 0 0 0 0 0 0 0 0 0 0 0 0 0 0 0 0 0 0 0 0 0 0 0 0 0 0 0 0 0 0 0 0 0 0 0 0 0 0 0 0 0 0 0 0 0 0 0 0 0 0 0 0 0 0 0 0 0 0 0 0 0 0 0 0 0 0 0 0 0 0 0 0 0 0 0 0 0 0 0 0 0 0 0 0 0 0 0 0 0 0 0 0 0 0 0 0 0 0 0 0 0 0 0 0 0 0 0 0 0 0 0 0 0 0 0 0 0 0 0 0 0 0 0 0 0 0 0 0 
</DataArray>
<DataArray Name="Stress_33" format="ascii" type="Float64">
2492.78 2488.78 2484.11 2232.27 2219.11 2205.12 1975.46 1952.81 1930.43 1720.92 1689.62 1658.2 1470.3 1430.25 1390.14 1224.59 1176.01 1127.32 984.904 927.937 870.91 752.185 687.145 621.987 527.496 454.632 381.649 311.763 231.38 150.891 105.904 18.3704 -69.3108 -89.164 -183.499 -277.977 -272.643 -373.352 -474.22 -443.702 -550.369 -657.199 -601.651 -713.812 -826.151 -745.794 -862.977 -980.347 -875.525 -997.233 -1119.12 -990.292 -1115.98 -1241.86 -1089.58 -1218.72 -1348.07 -1172.97 -1305.03 -1437.29 -1240.13 -1374.51 -1509.12 -1290.76 -1426.9 -1563.26 -1324.61 -1461.95 -1599.48 -1341.57 -1479.5 -1617.64 -1341.57 -1479.5 -1617.64 -1324.61 -1461.95 -1599.48 -1290.76 -1426.9 -1563.26 -1240.13 -1374.51 -1509.12 -1172.97 -1305.03 -1437.29 -1089.58 -1218.72 -1348.07 -990.292 -1115.98 -1241.86 -875.525 -997.233 -1119.12 -745.794 -862.977 -980.347 -601.651 -713.812 -826.151 -443.702 -550.369 -657.199 -272.643 -373.352 -474.22 -89.164 -183.499 -277.977 105.904 18.3704 -69.3108 311.763 231.38 150.891 527.496 454.632 381.649 752.185 687.145 621.987 984.904 927.937 870.91 1224.59 1176.01 1127.32 1470.3 1430.25 1390.14 1720.92 1689.62 1658.2 1975.46 1952.81 1930.43 2232.27 2219.11 2205.12 2492.78 2488.78 2484.11 
</DataArray>
</CellData>
<Points>
<DataArray NumberOfComponents="3" format="ascii" type="Float64">
0 0.09 0 -0.06364 0.06364 0 -0.005886 0.089807 0 -0.011747 0.08923 0 -0.017558 0.088271 0 -0.023294 0.086933 0 -0.02893 0.085224 0 -0.034442 0.083149 0 -0.039806 0.080719 0 -0.045 0.077942 0 -0.050001 0.074832 0 -0.054789 0.071402 0 -0.059341 0.067666 0 -0.070711 0.070711 0 -0.065997 0.065997 0 -0.068354 0.068354 0 0 0.1 0 -0.00654 0.099786 0 -0.013053 0.099144 0 -0.019509 0.098079 0 -0.025882 0.096593 0 -0.032144 0.094693 0 -0.038268 0.092388 0 -0.044229 0.089687 0 -0.05 0.086603 0 -0.055557 0.083147 0 -0.060876 0.079335 0 -0.065935 0.075184 0 0 0.093333 0 0 0.096667 0 -0.006104 0.093133 0 -0.012182 0.092535 0 -0.018208 0.09154 0 -0.024156 0.090153 0 -0.030001 0.08838 0 -0.035717 0.086229 0 -0.04128 0.083708 0 -0.046667 0.080829 0 -0.051853 0.077604 0 -0.056818 0.074046 0 -0.061539 0.070172 0 -0.006322 0.09646 0 -0.012618 0.09584 0 -0.018859 0.094809 0 -0.025019 0.093373 0 -0.031072 0.091537 0 -0.036993 0.089308 0 -0.042755 0.086698 0 -0.048333 0.083716 0 -0.053705 0.080375 0 -0.058847 0.076691 0 -0.063737 0.072678 0 -0.09 0 0 -0.067666 0.059341 0 -0.071402 0.054789 0 -0.074832 0.050001 0 -0.077942 0.045 0 -0.080719 0.039806 0 -0.083149 0.034442 0 -0.085224 0.02893 0 -0.086933 0.023294 0 -0.088271 0.017558 0 -0.08923 0.011747 0 -0.089807 0.005886 0 -0.1 0 0 -0.093333 0 0 -0.096667 0 0 -0.075184 0.065935 0 -0.079335 0.060876 0 -0.083147 0.055557 0 -0.086603 0.05 0 -0.089687 0.044229 0 -0.092388 0.038268 0 -0.094693 0.032144 0 -0.096593 0.025882 0 -0.098079 0.019509 0 -0.099144 0.013053 0 -0.099786 0.00654 0 -0.070172 0.061539 0 -0.074046 0.056818 0 -0.077604 0.051853 0 -0.080829 0.046667 0 -0.083708 0.04128 0 -0.086229 0.035717 0 -0.08838 0.030001 0 -0.090153 0.024156 0 -0.09154 0.018208 0 -0.092535 0.012182 0 -0.093133 0.006104 0 -0.072678 0.063737 0 -0.076691 0.058847 0 -0.080375 0.053705 0 -0.083716 0.048333 0 -0.086698 0.042755 0 -0.089308 0.036993 0 -0.091537 0.031072 0 -0.093373 0.025019 0 -0.094809 0.018859 0 -0.09584 0.012618 0 -0.09646 0.006322 0 -0.06364 -0.06364 0 -0.089807 -0.005886 0 -0.08923 -0.011747 0 -0.088271 -0.017558 0 -0.086933 -0.023294 0 -0.085224 -0.02893 0 -0.083149 -0.034442 0 -0.080719 -0.039806 0 -0.077942 -0.045 0 -0.074832 -0.050001 0 -0.071402 -0.054789 0 -0.067666 -0.059341 0 -0.070711 -0.070711 0 -0.065997 -0.065997 0 -0.068354 -0.068354 0 -0.099786 -0.00654 0 -0.099144 -0.013053 0 -0.098079 -0.019509 0 -0.096593 -0.025882 0 -0.094693 -0.032144 0 -0.092388 -0.038268 0 -0.089687 -0.044229 0 -0.086603 -0.05 0 -0.083147 -0.055557 0 -0.079335 -0.060876 0 -0.075184 -0.065935 0 -0.093133 -0.006104 0 -0.092535 -0.012182 0 -0.09154 -0.018208 0 -0.090153 -0.024156 0 -0.08838 -0.030001 0 -0.086229 -0.035717 0 -0.083708 -0.04128 0 -0.080829 -0.046667 0 -0.077604 -0.051853 0 -0.074046 -0.056818 0 -0.070172 -0.061539 0 -0.09646 -0.006322 0 -0.09584 -0.012618 0 -0.094809 -0.018859 0 -0.093373 -0.025019 0 -0.091537 -0.031072 0 -0.089308 -0.036993 0 -0.086698 -0.042755 0 -0.083716 -0.048333 0 -0.080375 -0.053705 0 -0.076691 -0.058847 0 -0.072678 -0.063737 0 0 -0.09 0 -0.059341 -0.067666 0 -0.054789 -0.071402 0 -0.050001 -0.074832 0 -0.045 -0.077942 0 -0.039806 -0.080719 0 -0.034442 -0.083149 0 -0.02893 -0.085224 0 -0.023294 -0.086933 0 -0.017558 -0.088271 0 -0.011747 -0.08923 0 -0.005886 -0.089807 0 0 -0.1 0 0 -0.093333 0 0 -0.096667 0 -0.065935 -0.075184 0 -0.060876 -0.079335 0 -0.055557 -0.083147 0 -0.05 -0.086603 0 -0.044229 -0.089687 0 -0.038268 -0.092388 0 -0.032144 -0.094693 0 -0.025882 -0.096593 0 -0.019509 -0.098079 0 -0.013053 -0.099144 0 -0.00654 -0.099786 0 -0.061539 -0.070172 0 -0.056818 -0.074046 0 -0.051853 -0.077604 0 -0.046667 -0.080829 0 -0.04128 -0.083708 0 -0.035717 -0.086229 0 -0.030001 -0.08838 0 -0.024156 -0.090153 0 -0.018208 -0.09154 0 -0.012182 -0.092535 0 -0.006104 -0.093133 0 -0.063737 -0.072678 0 -0.058847 -0.076691 0 -0.053705 -0.080375 0 -0.048333 -0.083716 0 -0.042755 -0.086698 0 -0.036993 -0.089308 0 -0.031072 -0.091537 0 -0.025019 -0.093373 0 -0.018859 -0.094809 0 -0.012618 -0.09584 0 -0.006322 -0.09646 0 
</DataArray>
</Points>
<Cells>
<DataArray Name="connectivity" format="ascii" type="Int64">
0 28 30 2 28 29 41 30 29 16 17 41 2 30 31 3 30 41 42 31 41 17 18 42 3 31 32 4 31 42 43 32 42 18 19 43 4 32 33 5 32 43 44 33 43 19 20 44 5 33 34 6 33 44 45 34 44 20 21 45 6 34 35 7 34 45 46 35 45 21 22 46 7 35 36 8 35 46 47 36 46 22 23 47 8 36 37 9 36 47 48 37 47 23 24 48 9 37 38 10 37 48 49 38 48 24 25 49 10 38 39 11 38 49 50 39 49 25 26 50 11 39 40 12 39 50 51 40 50 26 27 51 12 40 14 1 40 51 15 14 51 27 13 15 1 14 78 53 14 15 89 78 15 13 67 89 53 78 79 54 78 89 90 79 89 67 68 90 54 79 80 55 79 90 91 80 90 68 69 91 55 80 81 56 80 91 92 81 91 69 70 92 56 81 82 57 81 92 93 82 92 70 71 93 57 82 83 58 82 93 94 83 93 71 72 94 58 83 84 59 83 94 95 84 94 72 73 95 59 84 85 60 84 95 96 85 95 73 74 96 60 85 86 61 85 96 97 86 96 74 75 97 61 86 87 62 86 97 98 87 97 75 76 98 62 87 88 63 87 98 99 88 98 76 77 99 63 88 65 52 88 99 66 65 99 77 64 66 52 65 126 101 65 66 137 126 66 64 115 137 101 126 127 102 126 137 138 127 137 115 116 138 102 127 128 103 127 138 139 128 138 116 117 139 103 128 129 104 128 139 140 129 139 117 118 140 104 129 130 105 129 140 141 130 140 118 119 141 105 130 131 106 130 141 142 131 141 119 120 142 106 131 132 107 131 142 143 132 142 120 121 143 107 132 133 108 132 143 144 133 143 121 122 144 108 133 134 109 133 144 145 134 144 122 123 145 109 134 135 110 134 145 146 135 145 123 124 146 110 135 136 111 135 146 147 136 146 124 125 147 111 136 113 100 136 147 114 113 147 125 112 114 100 113 174 149 113 114 185 174 114 112 163 185 149 174 175 150 174 185 186 175 185 163 164 186 150 175 176 151 175 186 187 176 186 164 165 187 151 176 177 152 176 187 188 177 187 165 166 188 152 177 178 153 177 188 189 178 188 166 167 189 153 178 179 154 178 189 190 179 189 167 168 190 154 179 180 155 179 190 191 180 190 168 169 191 155 180 181 156 180 191 192 181 191 169 170 192 156 181 182 157 181 192 193 182 192 170 171 193 157 182 183 158 182 193 194 183 193 171 172 194 158 183 184 159 183 194 195 184 194 172 173 195 159 184 161 148 184 195 162 161 195 173 160 162 
</DataArray>
<DataArray Name="offsets" format="ascii" type="Int64">
4 8 12 16 20 24 28 32 36 40 44 48 52 56 60 64 68 72 76 80 84 88 92 96 100 104 108 112 116 120 124 128 132 136 140 144 148 152 156 160 164 168 172 176 180 184 188 192 196 200 204 208 212 216 220 224 228 232 236 240 244 248 252 256 260 264 268 272 276 280 284 288 292 296 300 304 308 312 316 320 324 328 332 336 340 344 348 352 356 360 364 368 372 376 380 384 388 392 396 400 404 408 412 416 420 424 428 432 436 440 444 448 452 456 460 464 468 472 476 480 484 488 492 496 500 504 508 512 516 520 524 528 532 536 540 544 548 552 556 560 564 568 572 576 
</DataArray>
<DataArray Name="types" format="ascii" type="Int8">
9 9 9 9 9 9 9 9 9 9 9 9 9 9 9 9 9 9 9 9 9 9 9 9 9 9 9 9 9 9 9 9 9 9 9 9 9 9 9 9 9 9 9 9 9 9 9 9 9 9 9 9 9 9 9 9 9 9 9 9 9 9 9 9 9 9 9 9 9 9 9 9 9 9 9 9 9 9 9 9 9 9 9 9 9 9 9 9 9 9 9 9 9 9 9 9 9 9 9 9 9 9 9 9 9 9 9 9 9 9 9 9 9 9 9 9 9 9 9 9 9 9 9 9 9 9 9 9 9 9 9 9 9 9 9 9 9 9 9 9 9 9 9 9 
</DataArray>
</Cells>
</Piece>
</UnstructuredGrid>
</VTKFile>
