<?xml version="1.0"?>
<VTKFile byte_order="LittleEndian" type="UnstructuredGrid" version="0.1">
<UnstructuredGrid>
<Piece NumberOfCells="144" NumberOfPoints="196">
<PointData>
<DataArray Name="Warping_X" format="ascii" type="Float64">
-0.665446 0.120901 -0.585359 -0.504225 -0.423254 -0.343686 -0.266704 -0.193403 -0.1248 -0.0617811 -0.00513638 0.0445085 0.0866273 0.211001 0.149259 0.179297 -0.726449 -0.628967 -0.530303 -0.432181 -0.336068 -0.243426 -0.155611 -0.0738457 0.000744919 0.0672183 0.124787 0.172859 -0.685732 -0.706273 -0.600121 -0.513355 -0.426874 -0.341993 -0.259968 -0.181995 -0.109148 -0.0423859 0.0174347 0.06965 0.11371 -0.61464 -0.522039 -0.429838 -0.339448 -0.252212 -0.169385 -0.092152 -0.0215485 0.0415558 0.0964144 0.142458 3.56991e-13 0.147122 0.165271 0.175467 0.178008 0.173321 0.161966 0.144649 0.122172 0.0954526 0.0654744 0.0332932 3.57159e-13 3.57466e-13 3.57496e-13 0.239 0.256833 0.264685 0.262911 0.252054 0.232844 0.206159 0.173014 0.134549 0.0920061 0.0466971 0.176088 0.194171 0.203661 0.20486 0.198233 0.184408 0.164129 0.138278 0.107841 0.0738831 0.0375422 0.206717 0.224701 0.233399 0.233162 0.224488 0.208037 0.184636 0.155229 0.120877 0.0827329 0.0420113 -0.120901 -0.0332932 -0.0654744 -0.0954526 -0.122172 -0.144649 -0.161966 -0.173321 -0.178008 -0.175467 -0.165271 -0.147122 -0.211001 -0.149259 -0.179297 -0.0466971 -0.0920061 -0.134549 -0.173014 -0.206159 -0.232844 -0.252054 -0.262911 -0.264685 -0.256833 -0.239 -0.0375422 -0.0738831 -0.107841 -0.138278 -0.164129 -0.184408 -0.198233 -0.20486 -0.203661 -0.194171 -0.176088 -0.0420113 -0.0827329 -0.120877 -0.155229 -0.184636 -0.208037 -0.224488 -0.233162 -0.233399 -0.224701 -0.206717 0.665446 -0.0866273 -0.0445085 0.00513638 0.0617811 0.1248 0.193403 0.266704 0.343686 0.423254 0.504225 0.585359 0.726449 0.685732 0.706273 -0.172859 -0.124787 -0.0672183 -0.000744919 0.0738457 0.155611 0.243426 0.336068 0.432181 0.530303 0.628967 -0.11371 -0.06965 -0.0174347 0.0423859 0.109148 0.181995 0.259968 0.341993 0.426874 0.513355 0.600121 -0.142458 -0.0964144 -0.0415558 0.0215485 0.092152 0.169385 0.252212 0.339448 0.429838 0.522039 0.61464 
</DataArray>
<DataArray Name="Warping_Y" format="ascii" type="Float64">
-0.188805 -0.0102177 -0.219892 -0.241243 -0.252899 -0.255115 -0.248325 -0.233061 -0.210041 -0.180052 -0.14404 -0.103007 -0.0580249 -0.0611563 -0.0271773 -0.044156 -0.329872 -0.363778 -0.385716 -0.395718 -0.394122 -0.381457 -0.358443 -0.325945 -0.285002 -0.23674 -0.182436 -0.123441 -0.234109 -0.28115 -0.266184 -0.287762 -0.298933 -0.299977 -0.291349 -0.273654 -0.247632 -0.214178 -0.174283 -0.129026 -0.079592 -0.314154 -0.335931 -0.346539 -0.346317 -0.335736 -0.315443 -0.286277 -0.249162 -0.205176 -0.15551 -0.101397 0.396204 0.0392586 0.0892278 0.138562 0.186132 0.230893 0.271846 0.308117 0.338909 0.363574 0.381572 0.392525 0.460682 0.416039 0.437541 0.00298082 0.0675258 0.13104 0.192143 0.249511 0.301934 0.348289 0.387614 0.41908 0.442026 0.455996 0.0269676 0.081579 0.135435 0.187316 0.2361 0.280714 0.320199 0.353716 0.380548 0.400128 0.412039 0.0148762 0.0743494 0.132928 0.189327 0.242308 0.29074 0.333599 0.369954 0.39905 0.420285 0.433205 -0.0102177 0.392525 0.381572 0.363574 0.338909 0.308117 0.271846 0.230893 0.186132 0.138562 0.0892278 0.0392586 -0.0611563 -0.0271773 -0.044156 0.455996 0.442026 0.41908 0.387614 0.348289 0.301934 0.249511 0.192143 0.13104 0.0675258 0.00298082 0.412039 0.400128 0.380548 0.353716 0.320199 0.280714 0.2361 0.187316 0.135435 0.081579 0.0269676 0.433205 0.420285 0.39905 0.369954 0.333599 0.29074 0.242308 0.189327 0.132928 0.0743494 0.0148762 -0.188805 -0.0580249 -0.103007 -0.14404 -0.180052 -0.210041 -0.233061 -0.248325 -0.255115 -0.252899 -0.241243 -0.219892 -0.329872 -0.234109 -0.28115 -0.123441 -0.182436 -0.23674 -0.285002 -0.325945 -0.358443 -0.381457 -0.394122 -0.395718 -0.385716 -0.363778 -0.079592 -0.129026 -0.174283 -0.214178 -0.247632 -0.273654 -0.291349 -0.299977 -0.298933 -0.287762 -0.266184 -0.101397 -0.15551 -0.205176 -0.249162 -0.286277 -0.315443 -0.335736 -0.346317 -0.346539 -0.335931 -0.314154 
</DataArray>
<DataArray Name="Warping_Z" format="ascii" type="Float64">
0 0 0 0 0 0 0 0 0 0 0 0 0 0 0 0 0 0 0 0 0 0 0 0 0 0 0 0 0 0 0 0 0 0 0 0 0 0 0 0 0 0 0 0 0 0 0 0 0 0 0 0 0 0 0 0 0 0 0 0 0 0 0 0 0 0 0 0 0 0 0 0 0 0 0 0 0 0 0 0 0 0 0 0 0 0 0 0 0 0 0 0 0 0 0 0 0 0 0 0 0 0 0 0 0 0 0 0 0 0 0 0 0 0 0 0 0 0 0 0 0 0 0 0 0 0 0 0 0 0 0 0 0 0 0 0 0 0 0 0 0 0 0 0 0 0 0 0 0 0 0 0 0 0 0 0 0 0 0 0 0 0 0 0 0 0 0 0 0 0 0 0 0 0 0 0 0 0 0 0 0 0 0 0 0 0 0 0 0 0 0 0 0 0 0 0 
</DataArray>
</PointData>
<CellData>
<DataArray Name="MaterialId" format="ascii" type="Float64">
1 1 1 1 1 1 1 1 1 1 1 1 1 1 1 1 1 1 1 1 1 1 1 1 1 1 1 1 1 1 1 1 1 1 1 1 1 1 1 1 1 1 1 1 1 1 1 1 1 1 1 1 1 1 1 1 1 1 1 1 1 1 1 1 1 1 1 1 1 1 1 1 1 1 1 1 1 1 1 1 1 1 1 1 1 1 1 1 1 1 1 1 1 1 1 1 1 1 1 1 1 1 1 1 1 1 1 1 1 1 1 1 1 1 1 1 1 1 1 1 1 1 1 1 1 1 1 1 1 1 1 1 1 1 1 1 1 1 1 1 1 1 1 1 
</DataArray>
<DataArray Name="FiberAngle" format="ascii" type="Float64">
0 0 0 0 0 0 0 0 0 0 0 0 0 0 0 0 0 0 0 0 0 0 0 0 0 0 0 0 0 0 0 0 0 0 0 0 0 0 0 0 0 0 0 0 0 0 0 0 0 0 0 0 0 0 0 0 0 0 0 0 0 0 0 0 0 0 0 0 0 0 0 0 0 0 0 0 0 0 0 0 0 0 0 0 0 0 0 0 0 0 0 0 0 0 0 0 0 0 0 0 0 0 0 0 0 0 0 0 0 0 0 0 0 0 0 0 0 0 0 0 0 0 0 0 0 0 0 0 0 0 0 0 0 0 0 0 0 0 0 0 0 0 0 0 
</DataArray>
<DataArray Name="Strain_11" format="ascii" type="Float64">
-13.6326 -14.0765 -14.5183 -13.577 -14.015 -14.456 -13.4596 -13.8941 -14.3328 -13.2836 -13.7145 -14.1491 -13.0505 -13.4762 -13.9051 -12.7612 -13.1802 -13.6018 -12.4169 -12.8278 -13.2406 -12.0193 -12.4204 -12.8229 -11.5702 -11.9598 -12.3503 -11.0716 -11.4481 -11.8248 -10.5257 -10.8873 -11.2485 -9.93512 -10.2799 -10.6237 -9.30223 -9.62838 -9.95317 -8.63001 -8.93559 -9.23951 -7.92126 -8.20456 -8.48572 -7.17923 -7.43824 -7.69517 -6.40701 -6.64019 -6.87112 -5.60782 -5.81363 -6.01702 -4.78538 -4.96196 -5.1367 -3.94269 -4.08918 -4.23376 -3.08373 -3.19883 -3.31238 -2.21178 -2.29472 -2.37658 -1.33078 -1.38074 -1.43003 -0.444198 -0.460913 -0.477377 0.444198 0.460913 0.477377 1.33078 1.38074 1.43003 2.21178 2.29472 2.37658 3.08373 3.19883 3.31238 3.94269 4.08918 4.23376 4.78538 4.96196 5.1367 5.60782 5.81363 6.01702 6.40701 6.64019 6.87112 7.17923 7.43824 7.69517 7.92126 8.20456 8.48572 8.63001 8.93559 9.23951 9.30223 9.62838 9.95317 9.93512 10.2799 10.6237 10.5257 10.8873 11.2485 11.0716 11.4481 11.8248 11.5702 11.9598 12.3503 12.0193 12.4204 12.8229 12.4169 12.8278 13.2406 12.7612 13.1802 13.6018 13.0505 13.4762 13.9051 13.2836 13.7145 14.1491 13.4596 13.8941 14.3328 13.577 14.015 14.456 13.6326 14.0765 14.5183 
</DataArray>
<DataArray Name="Strain_22" format="ascii" type="Float64">
-13.5683 -14.0772 -14.5829 -13.5114 -14.0147 -14.5169 -13.3954 -13.8958 -14.3937 -13.2241 -13.7158 -14.2052 -12.9961 -13.4771 -13.9563 -12.713 -13.1806 -13.647 -12.3756 -12.8277 -13.2791 -11.9854 -12.4199 -12.8542 -11.544 -11.9588 -12.3741 -11.0531 -11.4466 -11.8412 -10.5146 -10.8854 -11.2576 -9.93094 -10.2776 -10.6263 -9.3043 -9.62581 -9.94966 -8.63742 -8.9328 -9.23087 -7.93299 -8.20157 -8.47301 -7.19407 -7.4353 -7.67944 -6.42385 -6.6372 -6.85361 -5.62547 -5.81077 -5.99891 -4.80252 -4.95948 -5.11902 -3.95846 -4.0869 -4.21778 -3.09697 -3.19698 -3.29892 -2.22188 -2.29339 -2.36628 -1.33704 -1.37995 -1.42369 -0.446335 -0.460624 -0.475203 0.446335 0.460624 0.475203 1.33704 1.37995 1.42369 2.22188 2.29339 2.36628 3.09697 3.19698 3.29892 3.95846 4.0869 4.21778 4.80252 4.95948 5.11902 5.62547 5.81077 5.99891 6.42385 6.6372 6.85361 7.19407 7.4353 7.67944 7.93299 8.20157 8.47301 8.63742 8.9328 9.23087 9.3043 9.62581 9.94966 9.93094 10.2776 10.6263 10.5146 10.8854 11.2576 11.0531 11.4466 11.8412 11.544 11.9588 12.3741 11.9854 12.4199 12.8542 12.3756 12.8277 13.2791 12.713 13.1806 13.647 12.9961 13.4771 13.9563 13.2241 13.7158 14.2052 13.3954 13.8958 14.3937 13.5114 14.0147 14.5169 13.5683 14.0772 14.5829 
</DataArray>
<DataArray Name="Strain_12" format="ascii" type="Float64">
0.00307054 -0.0257742 0.0227451 -0.0148253 0.00251988 0.0119653 -0.0212395 0.00122185 0.0204242 -0.0289419 0.00137285 0.0279264 -0.0359507 0.00182993 0.0344845 -0.0416222 0.00187045 0.0401095 -0.0462905 0.00215029 0.044347 -0.0495978 0.00223443 0.0475214 -0.0515188 0.00203853 0.0493345 -0.0521621 0.00202224 0.0498052 -0.051474 0.0016968 0.0489939 -0.0495099 0.00143893 0.0470235 -0.0465184 0.00103666 0.043964 -0.0425441 0.000509916 0.0400244 -0.0379572 0.000139063 0.0353137 -0.032762 -0.00049441 0.0302305 -0.0272938 -0.00103989 0.0249198 -0.0219887 -0.00147035 0.0194605 -0.01673 -0.00200767 0.0143934 -0.0120723 -0.00244912 0.00971628 -0.00802576 -0.00280485 0.00575207 -0.00481798 -0.00311369 0.0026055 -0.00263161 -0.00328429 0.000382892 -0.00148495 -0.00341489 -0.000701965 -0.00148495 -0.00341489 -0.000701965 -0.00263161 -0.00328429 0.000382892 -0.00481798 -0.00311369 0.0026055 -0.00802576 -0.00280485 0.00575207 -0.0120723 -0.00244912 0.00971628 -0.01673 -0.00200767 0.0143934 -0.0219887 -0.00147035 0.0194605 -0.0272938 -0.00103989 0.0249198 -0.032762 -0.00049441 0.0302305 -0.0379572 0.000139063 0.0353137 -0.0425441 0.000509916 0.0400244 -0.0465184 0.00103666 0.043964 -0.0495099 0.00143893 0.0470235 -0.051474 0.0016968 0.0489939 -0.0521621 0.00202224 0.0498052 -0.0515188 0.00203853 0.0493345 -0.0495978 0.00223443 0.0475214 -0.0462905 0.00215029 0.044347 -0.0416222 0.00187045 0.0401095 -0.0359507 0.00182993 0.0344845 -0.0289419 0.00137285 0.0279264 -0.0212395 0.00122185 0.0204242 -0.0148253 0.00251988 0.0119653 0.00307054 -0.0257742 0.0227451 
</DataArray>
<DataArray Name="Strain_13" format="ascii" type="Float64">
0 0 0 0 0 0 0 0 0 0 0 0 0 0 0 0 0 0 0 0 0 0 0 0 0 0 0 0 0 0 0 0 0 0 0 0 0 0 0 0 0 0 0 0 0 0 0 0 0 0 0 0 0 0 0 0 0 0 0 0 0 0 0 0 0 0 0 0 0 0 0 0 0 0 0 0 0 0 0 0 0 0 0 0 0 0 0 0 0 0 0 0 0 0 0 0 0 0 0 0 0 0 0 0 0 0 0 0 0 0 0 0 0 0 0 0 0 0 0 0 0 0 0 0 0 0 0 0 0 0 0 0 0 0 0 0 0 0 0 0 0 0 0 0 
</DataArray>
<DataArray Name="Strain_23" format="ascii" type="Float64">
0 0 0 0 0 0 0 0 0 0 0 0 0 0 0 0 0 0 0 0 0 0 0 0 0 0 0 0 0 0 0 0 0 0 0 0 0 0 0 0 0 0 0 0 0 0 0 0 0 0 0 0 0 0 0 0 0 0 0 0 0 0 0 0 0 0 0 0 0 0 0 0 0 0 0 0 0 0 0 0 0 0 0 0 0 0 0 0 0 0 0 0 0 0 0 0 0 0 0 0 0 0 0 0 0 0 0 0 0 0 0 0 0 0 0 0 0 0 0 0 0 0 0 0 0 0 0 0 0 0 0 0 0 0 0 0 0 0 0 0 0 0 0 0 
</DataArray>
<DataArray Name="Strain_33" format="ascii" type="Float64">
0.0915682 0.0948982 0.0982283 0.0911763 0.094492 0.0978075 0.090394 0.093681 0.096968 0.0892242 0.0924687 0.0957135 0.0876725 0.0908608 0.094049 0.0857455 0.0888635 0.0919815 0.0834513 0.0864858 0.0895202 0.0807995 0.0837377 0.086676 0.0778018 0.080631 0.0834602 0.074471 0.077179 0.079887 0.0708215 0.0733968 0.075972 0.0668688 0.0693003 0.0717317 0.0626292 0.0649067 0.0671843 0.0581217 0.0602352 0.0623487 0.0533652 0.0553058 0.0572462 0.0483802 0.0501395 0.0518988 0.0431882 0.0447587 0.0463293 0.0378112 0.0391862 0.0405613 0.0322725 0.0334457 0.0346192 0.0265952 0.027562 0.0285292 0.020804 0.0215605 0.0223173 0.0149237 0.0154668 0.0160097 0.00897975 0.0093065 0.00963325 0.0029975 0.0031065 0.0032155 -0.0029975 -0.0031065 -0.0032155 -0.00897975 -0.0093065 -0.00963325 -0.0149237 -0.0154668 -0.0160097 -0.020804 -0.0215605 -0.0223173 -0.0265952 -0.027562 -0.0285293 -0.0322725 -0.0334457 -0.0346192 -0.0378112 -0.0391862 -0.0405612 -0.0431882 -0.0447587 -0.0463293 -0.0483802 -0.0501395 -0.0518988 -0.0533653 -0.0553058 -0.0572462 -0.0581217 -0.0602353 -0.0623487 -0.0626292 -0.0649067 -0.0671843 -0.0668688 -0.0693003 -0.0717317 -0.0708215 -0.0733967 -0.075972 -0.074471 -0.077179 -0.079887 -0.0778018 -0.080631 -0.0834602 -0.0807995 -0.0837377 -0.086676 -0.0834513 -0.0864858 -0.0895203 -0.0857455 -0.0888635 -0.0919815 -0.0876725 -0.0908607 -0.094049 -0.0892242 -0.0924688 -0.0957135 -0.090394 -0.093681 -0.096968 -0.0911762 -0.094492 -0.0978075 -0.0915682 -0.0948983 -0.0982283 
</DataArray>
<DataArray Name="Stress_11" format="ascii" type="Float64">
-1889.09 -1952.46 -2015.5 -1881.33 -1943.89 -2006.76 -1865.09 -1927.18 -1989.67 -1840.81 -1902.26 -1964.05 -1808.62 -1869.2 -1930.07 -1768.67 -1828.12 -1887.84 -1721.11 -1779.23 -1837.55 -1666.16 -1722.71 -1779.42 -1604.08 -1658.82 -1713.67 -1535.13 -1587.83 -1640.56 -1459.63 -1510.03 -1560.43 -1377.9 -1425.77 -1473.6 -1290.29 -1335.4 -1380.42 -1197.2 -1239.3 -1281.29 -1099.02 -1137.9 -1176.63 -996.183 -1031.61 -1066.9 -889.13 -920.923 -952.55 -778.304 -806.281 -834.067 -664.215 -688.163 -711.978 -547.295 -567.113 -586.785 -428.085 -443.631 -459.059 -307.058 -318.244 -329.35 -184.754 -191.489 -198.171 -61.6703 -63.9214 -66.1527 61.6703 63.9214 66.1527 184.754 191.489 198.171 307.058 318.244 329.35 428.085 443.631 459.059 547.295 567.113 586.785 664.215 688.163 711.978 778.304 806.281 834.067 889.13 920.923 952.55 996.183 1031.61 1066.9 1099.02 1137.9 1176.63 1197.2 1239.3 1281.29 1290.29 1335.4 1380.42 1377.9 1425.77 1473.6 1459.63 1510.03 1560.43 1535.13 1587.83 1640.56 1604.08 1658.82 1713.67 1666.16 1722.71 1779.42 1721.11 1779.23 1837.55 1768.67 1828.12 1887.84 1808.62 1869.2 1930.07 1840.81 1902.26 1964.05 1865.09 1927.18 1989.67 1881.33 1943.89 2006.76 1889.09 1952.46 2015.5 
</DataArray>
<DataArray Name="Stress_22" format="ascii" type="Float64">
-1883.72 -1952.51 -2020.88 -1875.87 -1943.86 -2011.83 -1859.74 -1927.32 -1994.74 -1835.86 -1902.36 -1968.73 -1804.09 -1869.27 -1934.34 -1764.65 -1828.16 -1891.61 -1717.67 -1779.22 -1840.76 -1663.34 -1722.68 -1782.03 -1601.89 -1658.74 -1715.65 -1533.59 -1587.7 -1641.93 -1458.7 -1509.88 -1561.2 -1377.56 -1425.58 -1473.81 -1290.47 -1335.19 -1380.13 -1197.82 -1239.07 -1280.57 -1100 -1137.65 -1175.57 -997.42 -1031.37 -1065.58 -890.533 -920.673 -951.09 -779.775 -806.043 -832.558 -665.644 -687.956 -710.505 -548.609 -566.923 -585.454 -429.189 -443.478 -457.937 -307.899 -318.134 -328.491 -185.276 -191.423 -197.643 -61.8484 -63.8973 -65.9715 61.8484 63.8973 65.9715 185.276 191.423 197.643 307.899 318.134 328.491 429.189 443.478 457.937 548.609 566.923 585.454 665.644 687.956 710.505 779.775 806.043 832.558 890.533 920.673 951.09 997.42 1031.37 1065.58 1100 1137.65 1175.57 1197.82 1239.07 1280.57 1290.47 1335.19 1380.13 1377.56 1425.58 1473.81 1458.7 1509.88 1561.2 1533.59 1587.7 1641.93 1601.89 1658.74 1715.65 1663.34 1722.68 1782.03 1717.67 1779.22 1840.76 1764.65 1828.16 1891.61 1804.09 1869.27 1934.34 1835.86 1902.36 1968.73 1859.74 1927.32 1994.74 1875.87 1943.86 2011.83 1883.72 1952.51 2020.88 
</DataArray>
<DataArray Name="Stress_12" format="ascii" type="Float64">
0.12794 -1.07393 0.94772 -0.617725 0.104996 0.498558 -0.884987 0.0509109 0.851017 -1.20592 0.0572027 1.16361 -1.49796 0.0762478 1.43686 -1.73427 0.077936 1.67124 -1.92879 0.0895959 1.84781 -2.06659 0.093102 1.98007 -2.14663 0.0849396 2.05562 -2.17344 0.0842608 2.07523 -2.14477 0.0707006 2.04143 -2.06293 0.059956 1.95933 -1.93828 0.0431943 1.83185 -1.77268 0.0212467 1.6677 -1.58156 0.00579436 1.47142 -1.36509 -0.0206006 1.25962 -1.13725 -0.0433291 1.03833 -0.916203 -0.0612653 0.810859 -0.697091 -0.0836536 0.59973 -0.503015 -0.102048 0.404848 -0.334409 -0.116869 0.239672 -0.200751 -0.129738 0.108563 -0.109651 -0.136846 0.015954 -0.0618733 -0.142288 -0.0292488 -0.0618733 -0.142288 -0.0292488 -0.109651 -0.136846 0.015954 -0.200751 -0.129738 0.108563 -0.334409 -0.116869 0.239672 -0.503015 -0.102048 0.404848 -0.697091 -0.0836536 0.59973 -0.916203 -0.0612653 0.810859 -1.13725 -0.0433291 1.03833 -1.36509 -0.0206006 1.25962 -1.58156 0.00579436 1.47142 -1.77268 0.0212467 1.6677 -1.93828 0.0431943 1.83185 -2.06293 0.059956 1.95933 -2.14477 0.0707006 2.04143 -2.17344 0.0842608 2.07523 -2.14663 0.0849396 2.05562 -2.06659 0.093102 1.98007 -1.92879 0.0895959 1.84781 -1.73427 0.077936 1.67124 -1.49796 0.0762478 1.43686 -1.20592 0.0572027 1.16361 -0.884987 0.0509109 0.851017 -0.617725 0.104996 0.498558 0.12794 -1.07393 0.94772 
</DataArray>
<DataArray Name="Stress_13" format="ascii" type="Float64">
0 0 0 0 0 0 0 0 0 0 0 0 0 0 0 0 0 0 0 0 0 0 0 0 0 0 0 0 0 0 0 0 0 0 0 0 0 0 0 0 0 0 0 0 0 0 0 0 0 0 0 0 0 0 0 0 0 0 0 0 0 0 0 0 0 0 0 0 0 0 0 0 0 0 0 0 0 0 0 0 0 0 0 0 0 0 0 0 0 0 0 0 0 0 0 0 0 0 0 0 0 0 0 0 0 0 0 0 0 0 0 0 0 0 0 0 0 0 0 0 0 0 0 0 0 0 0 0 0 0 0 0 0 0 0 0 0 0 0 0 0 0 0 0 
</DataArray>
<DataArray Name="Stress_23" format="ascii" type="Float64">
0 0 0 0 0 0 0 0 0 0 0 0 0 0 0 0 0 0 0 0 0 0 0 0 0 0 0 0 0 0 0 0 0 0 0 0 0 0 0 0 0 0 0 0 0 0 0 0 0 0 0 0 0 0 0 0 0 0 0 0 0 0 0 0 0 0 0 0 0 0 0 0 0 0 0 0 0 0 0 0 0 0 0 0 0 0 0 0 0 0 0 0 0 0 0 0 0 0 0 0 0 0 0 0 0 0 0 0 0 0 0 0 0 0 0 0 0 0 0 0 0 0 0 0 0 0 0 0 0 0 0 0 0 0 0 0 0 0 0 0 0 0 0 0 
</DataArray>
<DataArray Name="Stress_33" format="ascii" type="Float64">
-745.405 -771.504 -797.454 -742.324 -768.102 -793.936 -735.927 -761.532 -787.184 -726.412 -751.679 -776.985 -713.776 -738.607 -763.476 -698.088 -722.37 -746.692 -679.41 -703.042 -726.711 -657.82 -680.704 -703.622 -633.415 -655.448 -677.518 -606.298 -627.388 -648.511 -576.585 -596.641 -616.729 -544.405 -563.341 -582.308 -509.889 -527.627 -545.391 -473.193 -489.652 -506.138 -434.466 -449.581 -464.715 -393.883 -407.583 -421.306 -351.614 -363.843 -376.095 -307.835 -318.546 -329.269 -262.745 -271.879 -281.035 -216.521 -224.051 -231.595 -169.374 -175.266 -181.168 -121.499 -125.729 -129.967 -73.1081 -75.6518 -78.1996 -24.404 -25.2531 -26.1033 24.404 25.2531 26.1033 73.1081 75.6518 78.1996 121.499 125.729 129.967 169.374 175.266 181.168 216.521 224.051 231.595 262.745 271.879 281.035 307.835 318.546 329.269 351.614 363.843 376.095 393.883 407.583 421.306 434.466 449.581 464.715 473.193 489.652 506.138 509.889 527.627 545.391 544.405 563.341 582.308 576.585 596.641 616.729 606.298 627.388 648.511 633.415 655.448 677.518 657.82 680.704 703.622 679.41 703.042 726.711 698.088 722.37 746.692 713.776 738.607 763.476 726.412 751.679 776.985 735.927 761.532 787.184 742.324 768.102 793.936 745.405 771.504 797.454 
</DataArray>
</CellData>
<Points>
<DataArray NumberOfComponents="3" format="ascii" type="Float64">
0 0.09 0 -0.06364 0.06364 0 -0.005886 0.089807 0 -0.011747 0.08923 0 -0.017558 0.088271 0 -0.023294 0.086933 0 -0.02893 0.085224 0 -0.034442 0.083149 0 -0.039806 0.080719 0 -0.045 0.077942 0 -0.050001 0.074832 0 -0.054789 0.071402 0 -0.059341 0.067666 0 -0.070711 0.070711 0 -0.065997 0.065997 0 -0.068354 0.068354 0 0 0.1 0 -0.00654 0.099786 0 -0.013053 0.099144 0 -0.019509 0.098079 0 -0.025882 0.096593 0 -0.032144 0.094693 0 -0.038268 0.092388 0 -0.044229 0.089687 0 -0.05 0.086603 0 -0.055557 0.083147 0 -0.060876 0.079335 0 -0.065935 0.075184 0 0 0.093333 0 0 0.096667 0 -0.006104 0.093133 0 -0.012182 0.092535 0 -0.018208 0.09154 0 -0.024156 0.090153 0 -0.030001 0.08838 0 -0.035717 0.086229 0 -0.04128 0.083708 0 -0.046667 0.080829 0 -0.051853 0.077604 0 -0.056818 0.074046 0 -0.061539 0.070172 0 -0.006322 0.09646 0 -0.012618 0.09584 0 -0.018859 0.094809 0 -0.025019 0.093373 0 -0.031072 0.091537 0 -0.036993 0.089308 0 -0.042755 0.086698 0 -0.048333 0.083716 0 -0.053705 0.080375 0 -0.058847 0.076691 0 -0.063737 0.072678 0 -0.09 0 0 -0.067666 0.059341 0 -0.071402 0.054789 0 -0.074832 0.050001 0 -0.077942 0.045 0 -0.080719 0.039806 0 -0.083149 0.034442 0 -0.085224 0.02893 0 -0.086933 0.023294 0 -0.088271 0.017558 0 -0.08923 0.011747 0 -0.089807 0.005886 0 -0.1 0 0 -0.093333 0 0 -0.096667 0 0 -0.075184 0.065935 0 -0.079335 0.060876 0 -0.083147 0.055557 0 -0.086603 0.05 0 -0.089687 0.044229 0 -0.092388 0.038268 0 -0.094693 0.032144 0 -0.096593 0.025882 0 -0.098079 0.019509 0 -0.099144 0.013053 0 -0.099786 0.00654 0 -0.070172 0.061539 0 -0.074046 0.056818 0 -0.077604 0.051853 0 -0.080829 0.046667 0 -0.083708 0.04128 0 -0.086229 0.035717 0 -0.08838 0.030001 0 -0.090153 0.024156 0 -0.09154 0.018208 0 -0.092535 0.012182 0 -0.093133 0.006104 0 -0.072678 0.063737 0 -0.076691 0.058847 0 -0.080375 0.053705 0 -0.083716 0.048333 0 -0.086698 0.042755 0 -0.089308 0.036993 0 -0.091537 0.031072 0 -0.093373 0.025019 0 -0.094809 0.018859 0 -0.09584 0.012618 0 -0.09646 0.006322 0 -0.06364 -0.06364 0 -0.089807 -0.005886 0 -0.08923 -0.011747 0 -0.088271 -0.017558 0 -0.086933 -0.023294 0 -0.085224 -0.02893 0 -0.083149 -0.034442 0 -0.080719 -0.039806 0 -0.077942 -0.045 0 -0.074832 -0.050001 0 -0.071402 -0.054789 0 -0.067666 -0.059341 0 -0.070711 -0.070711 0 -0.065997 -0.065997 0 -0.068354 -0.068354 0 -0.099786 -0.00654 0 -0.099144 -0.013053 0 -0.098079 -0.019509 0 -0.096593 -0.025882 0 -0.094693 -0.032144 0 -0.092388 -0.038268 0 -0.089687 -0.044229 0 -0.086603 -0.05 0 -0.083147 -0.055557 0 -0.079335 -0.060876 0 -0.075184 -0.065935 0 -0.093133 -0.006104 0 -0.092535 -0.012182 0 -0.09154 -0.018208 0 -0.090153 -0.024156 0 -0.08838 -0.030001 0 -0.086229 -0.035717 0 -0.083708 -0.04128 0 -0.080829 -0.046667 0 -0.077604 -0.051853 0 -0.074046 -0.056818 0 -0.070172 -0.061539 0 -0.09646 -0.006322 0 -0.09584 -0.012618 0 -0.094809 -0.018859 0 -0.093373 -0.025019 0 -0.091537 -0.031072 0 -0.089308 -0.036993 0 -0.086698 -0.042755 0 -0.083716 -0.048333 0 -0.080375 -0.053705 0 -0.076691 -0.058847 0 -0.072678 -0.063737 0 0 -0.09 0 -0.059341 -0.067666 0 -0.054789 -0.071402 0 -0.050001 -0.074832 0 -0.045 -0.077942 0 -0.039806 -0.080719 0 -0.034442 -0.083149 0 -0.02893 -0.085224 0 -0.023294 -0.086933 0 -0.017558 -0.088271 0 -0.011747 -0.08923 0 -0.005886 -0.089807 0 0 -0.1 0 0 -0.093333 0 0 -0.096667 0 -0.065935 -0.075184 0 -0.060876 -0.079335 0 -0.055557 -0.083147 0 -0.05 -0.086603 0 -0.044229 -0.089687 0 -0.038268 -0.092388 0 -0.032144 -0.094693 0 -0.025882 -0.096593 0 -0.019509 -0.098079 0 -0.013053 -0.099144 0 -0.00654 -0.099786 0 -0.061539 -0.070172 0 -0.056818 -0.074046 0 -0.051853 -0.077604 0 -0.046667 -0.080829 0 -0.04128 -0.083708 0 -0.035717 -0.086229 0 -0.030001 -0.08838 0 -0.024156 -0.090153 0 -0.018208 -0.09154 0 -0.012182 -0.092535 0 -0.006104 -0.093133 0 -0.063737 -0.072678 0 -0.058847 -0.076691 0 -0.053705 -0.080375 0 -0.048333 -0.083716 0 -0.042755 -0.086698 0 -0.036993 -0.089308 0 -0.031072 -0.091537 0 -0.025019 -0.093373 0 -0.018859 -0.094809 0 -0.012618 -0.09584 0 -0.006322 -0.09646 0 
</DataArray>
</Points>
<Cells>
<DataArray Name="connectivity" format="ascii" type="Int64">
0 28 30 2 28 29 41 30 29 16 17 41 2 30 31 3 30 41 42 31 41 17 18 42 3 31 32 4 31 42 43 32 42 18 19 43 4 32 33 5 32 43 44 33 43 19 20 44 5 33 34 6 33 44 45 34 44 20 21 45 6 34 35 7 34 45 46 35 45 21 22 46 7 35 36 8 35 46 47 36 46 22 23 47 8 36 37 9 36 47 48 37 47 23 24 48 9 37 38 10 37 48 49 38 48 24 25 49 10 38 39 11 38 49 50 39 49 25 26 50 11 39 40 12 39 50 51 40 50 26 27 51 12 40 14 1 40 51 15 14 51 27 13 15 1 14 78 53 14 15 89 78 15 13 67 89 53 78 79 54 78 89 90 79 89 67 68 90 54 79 80 55 79 90 91 80 90 68 69 91 55 80 81 56 80 91 92 81 91 69 70 92 56 81 82 57 81 92 93 82 92 70 71 93 57 82 83 58 82 93 94 83 93 71 72 94 58 83 84 59 83 94 95 84 94 72 73 95 59 84 85 60 84 95 96 85 95 73 74 96 60 85 86 61 85 96 97 86 96 74 75 97 61 86 87 62 86 97 98 87 97 75 76 98 62 87 88 63 87 98 99 88 98 76 77 99 63 88 65 52 88 99 66 65 99 77 64 66 52 65 126 101 65 66 137 126 66 64 115 137 101 126 127 102 126 137 138 127 137 115 116 138 102 127 128 103 127 138 139 128 138 116 117 139 103 128 129 104 128 139 140 129 139 117 118 140 104 129 130 105 129 140 141 130 140 118 119 141 105 130 131 106 130 141 142 131 141 119 120 142 106 131 132 107 131 142 143 132 142 120 121 143 107 132 133 108 132 143 144 133 143 121 122 144 108 133 134 109 133 144 145 134 144 122 123 145 109 134 135 110 134 145 146 135 145 123 124 146 110 135 136 111 135 146 147 136 146 124 125 147 111 136 113 100 136 147 114 113 147 125 112 114 100 113 174 149 113 114 185 174 114 112 163 185 149 174 175 150 174 185 186 175 185 163 164 186 150 175 176 151 175 186 187 176 186 164 165 187 151 176 177 152 176 187 188 177 187 165 166 188 152 177 178 153 177 188 189 178 188 166 167 189 153 178 179 154 178 189 190 179 189 167 168 190 154 179 180 155 179 190 191 180 190 168 169 191 155 180 181 156 180 191 192 181 191 169 170 192 156 181 182 157 181 192 193 182 192 170 171 193 157 182 183 158 182 193 194 183 193 171 172 194 158 183 184 159 183 194 195 184 194 172 173 195 159 184 161 148 184 195 162 161 195 173 160 162 
</DataArray>
<DataArray Name="offsets" format="ascii" type="Int64">
4 8 12 16 20 24 28 32 36 40 44 48 52 56 60 64 68 72 76 80 84 88 92 96 100 104 108 112 116 120 124 128 132 136 140 144 148 152 156 160 164 168 172 176 180 184 188 192 196 200 204 208 212 216 220 224 228 232 236 240 244 248 252 256 260 264 268 272 276 280 284 288 292 296 300 304 308 312 316 320 324 328 332 336 340 344 348 352 356 360 364 368 372 376 380 384 388 392 396 400 404 408 412 416 420 424 428 432 436 440 444 448 452 456 460 464 468 472 476 480 484 488 492 496 500 504 508 512 516 520 524 528 532 536 540 544 548 552 556 560 564 568 572 576 
</DataArray>
<DataArray Name="types" format="ascii" type="Int8">
9 9 9 9 9 9 9 9 9 9 9 9 9 9 9 9 9 9 9 9 9 9 9 9 9 9 9 9 9 9 9 9 9 9 9 9 9 9 9 9 9 9 9 9 9 9 9 9 9 9 9 9 9 9 9 9 9 9 9 9 9 9 9 9 9 9 9 9 9 9 9 9 9 9 9 9 9 9 9 9 9 9 9 9 9 9 9 9 9 9 9 9 9 9 9 9 9 9 9 9 9 9 9 9 9 9 9 9 9 9 9 9 9 9 9 9 9 9 9 9 9 9 9 9 9 9 9 9 9 9 9 9 9 9 9 9 9 9 9 9 9 9 9 9 
</DataArray>
</Cells>
</Piece>
</UnstructuredGrid>
</VTKFile>
