<?xml version="1.0"?>
<VTKFile byte_order="LittleEndian" type="UnstructuredGrid" version="0.1">
<UnstructuredGrid>
<Piece NumberOfCells="144" NumberOfPoints="196">
<PointData>
<DataArray Name="Warping_X" format="ascii" type="Float64">
0 -0 0 0 0 0 0 0 0 0 0 0 0 0 0 0 0 0 0 0 0 0 0 0 0 0 0 0 0 0 0 0 0 0 0 0 0 0 0 0 0 0 0 0 0 0 0 0 0 0 0 0 0 0 0 0 0 0 0 0 0 0 0 0 0 0 -0 0 0 0 0 0 0 0 0 0 0 0 0 0 0 0 0 0 0 0 0 0 0 0 0 0 0 0 0 0 0 0 0 0 0 0 0 0 0 0 0 0 0 0 0 0 0 0 0 0 0 0 0 0 0 0 0 0 0 0 0 0 0 0 0 0 0 0 0 0 0 0 0 0 0 0 0 0 0 0 0 0 0 0 0 0 0 0 0 0 0 0 0 0 0 0 0 0 0 0 0 0 0 0 0 0 0 0 0 0 0 0 0 0 0 0 0 0 0 0 0 0 0 0 0 0 0 0 0 0 
</DataArray>
<DataArray Name="Warping_Y" format="ascii" type="Float64">
0 -0 0 0 0 0 -0 0 0 0 0 0 0 0 0 0 0 0 0 0 0 0 0 0 0 0 0 0 0 -0 0 0 0 0 0 0 0 0 0 0 0 0 0 0 0 0 0 0 0 0 0 0 -0 0 0 0 0 0 0 0 0 0 0 0 0 0 0 0 0 0 0 0 0 0 0 0 0 0 0 0 0 0 0 0 0 0 0 0 0 0 0 0 0 0 0 0 0 0 0 0 -0 0 0 0 0 0 0 0 0 0 0 0 0 0 0 0 0 0 0 0 0 0 0 0 0 0 0 0 0 0 0 0 0 0 0 0 0 0 0 0 0 0 0 0 0 0 0 0 0 0 0 0 0 0 0 0 0 0 0 0 0 0 0 0 0 0 0 0 0 0 0 0 0 0 0 0 0 0 0 0 0 0 0 0 0 0 0 0 0 0 0 0 0 0 0 0 
</DataArray>
<DataArray Name="Warping_Z" format="ascii" type="Float64">
0 0 0 0 0 0 0 0 0 0 0 0 0 0 0 0 0 0 0 0 0 0 0 0 0 0 0 0 0 0 0 0 0 0 0 0 0 0 0 0 0 0 0 0 0 0 0 0 0 0 0 0 0 0 0 0 0 0 0 0 0 0 0 0 0 0 0 0 0 0 0 0 0 0 0 0 0 0 0 0 0 0 0 0 0 0 0 0 0 0 0 0 0 0 0 0 0 0 0 0 0 0 0 0 0 0 0 0 0 0 0 0 0 0 0 0 0 0 0 0 0 0 0 0 0 0 0 0 0 0 0 0 0 0 0 0 0 0 0 0 0 0 0 0 0 0 0 0 0 0 0 0 0 0 0 0 0 0 0 0 0 0 0 0 0 0 0 0 0 0 0 0 0 0 0 0 0 0 0 0 0 0 0 0 0 0 0 0 0 0 0 0 0 0 0 0 
</DataArray>
</PointData>
<CellData>
<DataArray Name="MaterialId" format="ascii" type="Float64">
1 1 1 1 1 1 1 1 1 1 1 1 1 1 1 1 1 1 1 1 1 1 1 1 1 1 1 1 1 1 1 1 1 1 1 1 1 1 1 1 1 1 1 1 1 1 1 1 1 1 1 1 1 1 1 1 1 1 1 1 1 1 1 1 1 1 1 1 1 1 1 1 1 1 1 1 1 1 1 1 1 1 1 1 1 1 1 1 1 1 1 1 1 1 1 1 1 1 1 1 1 1 1 1 1 1 1 1 1 1 1 1 1 1 1 1 1 1 1 1 1 1 1 1 1 1 1 1 1 1 1 1 1 1 1 1 1 1 1 1 1 1 1 1 
</DataArray>
<DataArray Name="FiberAngle" format="ascii" type="Float64">
0 0 0 0 0 0 0 0 0 0 0 0 0 0 0 0 0 0 0 0 0 0 0 0 0 0 0 0 0 0 0 0 0 0 0 0 0 0 0 0 0 0 0 0 0 0 0 0 0 0 0 0 0 0 0 0 0 0 0 0 0 0 0 0 0 0 0 0 0 0 0 0 0 0 0 0 0 0 0 0 0 0 0 0 0 0 0 0 0 0 0 0 0 0 0 0 0 0 0 0 0 0 0 0 0 0 0 0 0 0 0 0 0 0 0 0 0 0 0 0 0 0 0 0 0 0 0 0 0 0 0 0 0 0 0 0 0 0 0 0 0 0 0 0 
</DataArray>
<DataArray Name="Strain_11" format="ascii" type="Float64">
0 0 0 0 0 0 0 0 0 0 0 0 0 0 0 0 0 0 0 0 0 0 0 0 0 0 0 0 0 0 0 0 0 0 0 0 0 0 0 0 0 0 0 0 0 0 0 0 0 0 0 0 0 0 0 0 0 0 0 0 0 0 0 0 0 0 0 0 0 0 0 0 0 0 0 0 0 0 0 0 0 0 0 0 0 0 0 0 0 0 0 0 0 0 0 0 0 0 0 0 0 0 0 0 0 0 0 0 0 0 0 0 0 0 0 0 0 0 0 0 0 0 0 0 0 0 0 0 0 0 0 0 0 0 0 0 0 0 0 0 0 0 0 0 
</DataArray>
<DataArray Name="Strain_22" format="ascii" type="Float64">
0 0 0 0 0 0 0 0 0 0 0 0 0 0 0 0 0 0 0 0 0 0 0 0 0 0 0 0 0 0 0 0 0 0 0 0 0 0 0 0 0 0 0 0 0 0 0 0 0 0 0 0 0 0 0 0 0 0 0 0 0 0 0 0 0 0 0 0 0 0 0 0 0 0 0 0 0 0 0 0 0 0 0 0 0 0 0 0 0 0 0 0 0 0 0 0 0 0 0 0 0 0 0 0 0 0 0 0 0 0 0 0 0 0 0 0 0 0 0 0 0 0 0 0 0 0 0 0 0 0 0 0 0 0 0 0 0 0 0 0 0 0 0 0 
</DataArray>
<DataArray Name="Strain_12" format="ascii" type="Float64">
0 0 0 0 0 0 0 0 0 0 0 0 0 0 0 0 0 0 0 0 0 0 0 0 0 0 0 0 0 0 0 0 0 0 0 0 0 0 0 0 0 0 0 0 0 0 0 0 0 0 0 0 0 0 0 0 0 0 0 0 0 0 0 0 0 0 0 0 0 0 0 0 0 0 0 0 0 0 0 0 0 0 0 0 0 0 0 0 0 0 0 0 0 0 0 0 0 0 0 0 0 0 0 0 0 0 0 0 0 0 0 0 0 0 0 0 0 0 0 0 0 0 0 0 0 0 0 0 0 0 0 0 0 0 0 0 0 0 0 0 0 0 0 0 
</DataArray>
<DataArray Name="Strain_13" format="ascii" type="Float64">
23487.9 23306.3 23144.3 24005.3 23203.3 22458 23840.9 23006.8 22229.4 23535.2 22709.6 21940 23126.1 22314.7 21558.2 22617.7 21824.2 21084.4 22012.6 21240.1 20520.1 21313 20565.3 19868 20522.3 19802.3 19131.1 19643.9 18954.5 18312 18681.1 18025.6 17414.5 17638.5 17019.5 16442.6 16520.2 15940.6 15400.3 15331.2 14793.2 14291.9 14076.4 13582.6 13122.1 12761.6 12313.8 11896.4 11392.3 10992.4 10619.9 9973.7 9623.94 9297.54 8512.81 8213.88 7935.55 7015.14 6768.98 6539.43 5487.72 5295.16 5115.65 3936.48 3798.5 3670.03 2368.64 2285.53 2208.06 790.695 762.936 737.047 -790.695 -762.936 -737.047 -2368.64 -2285.53 -2208.06 -3936.48 -3798.5 -3670.03 -5487.72 -5295.16 -5115.65 -7015.14 -6768.98 -6539.43 -8512.81 -8213.88 -7935.55 -9973.7 -9623.94 -9297.54 -11392.3 -10992.4 -10619.9 -12761.6 -12313.8 -11896.4 -14076.4 -13582.6 -13122.1 -15331.2 -14793.2 -14291.9 -16520.2 -15940.6 -15400.3 -17638.5 -17019.5 -16442.6 -18681.1 -18025.6 -17414.5 -19643.9 -18954.5 -18312 -20522.3 -19802.3 -19131.1 -21313 -20565.3 -19868 -22012.6 -21240.1 -20520.1 -22617.7 -21824.2 -21084.4 -23126.1 -22314.7 -21558.2 -23535.2 -22709.6 -21940 -23840.9 -23006.8 -22229.4 -24005.3 -23203.3 -22458 -23487.9 -23306.3 -23144.3 
</DataArray>
<DataArray Name="Strain_23" format="ascii" type="Float64">
-28643.4 -28279.6 -28709.7 -27534.6 -27577 -27696.5 -25988.1 -26126.1 -26253.2 -24439.4 -24631.4 -24811.6 -22911.9 -23158.1 -23387.5 -21414.2 -21713.1 -21991.5 -19953.3 -20303.1 -20629.5 -18534.7 -18934.7 -19307.2 -17165.4 -17613.2 -18030.6 -15850.7 -16344.4 -16805 -14595.8 -15133.8 -15635.1 -13406.9 -13986.5 -14526.8 -12288.6 -12907.5 -13484.4 -11245.9 -11901.4 -12512.6 -10283.1 -10972.5 -11615 -9404.74 -10124.7 -10795.9 -8614 -9361.74 -10059 -7914.45 -8686.91 -9406.91 -7309.3 -8102.87 -8842.66 -6800.89 -7612.3 -8368.79 -6391.62 -7217.35 -7987.2 -6083.07 -6919.79 -7699.77 -5876.77 -6720.73 -7507.4 -5773.28 -6620.84 -7410.92 -5773.28 -6620.84 -7410.92 -5876.77 -6720.73 -7507.4 -6083.07 -6919.79 -7699.77 -6391.62 -7217.35 -7987.2 -6800.89 -7612.3 -8368.79 -7309.3 -8102.87 -8842.66 -7914.45 -8686.91 -9406.91 -8614 -9361.74 -10059 -9404.74 -10124.7 -10795.9 -10283.1 -10972.5 -11615 -11245.9 -11901.4 -12512.6 -12288.6 -12907.5 -13484.4 -13406.9 -13986.5 -14526.8 -14595.8 -15133.8 -15635.1 -15850.7 -16344.4 -16805 -17165.4 -17613.2 -18030.6 -18534.7 -18934.7 -19307.2 -19953.3 -20303.1 -20629.5 -21414.2 -21713.1 -21991.5 -22911.9 -23158.1 -23387.5 -24439.4 -24631.4 -24811.6 -25988.1 -26126.1 -26253.2 -27534.6 -27577 -27696.5 -28643.4 -28279.6 -28709.7 
</DataArray>
<DataArray Name="Strain_33" format="ascii" type="Float64">
0 0 0 0 0 0 0 0 0 0 0 0 0 0 0 0 0 0 0 0 0 0 0 0 0 0 0 0 0 0 0 0 0 0 0 0 0 0 0 0 0 0 0 0 0 0 0 0 0 0 0 0 0 0 0 0 0 0 0 0 0 0 0 0 0 0 0 0 0 0 0 0 0 0 0 0 0 0 0 0 0 0 0 0 0 0 0 0 0 0 0 0 0 0 0 0 0 0 0 0 0 0 0 0 0 0 0 0 0 0 0 0 0 0 0 0 0 0 0 0 0 0 0 0 0 0 0 0 0 0 0 0 0 0 0 0 0 0 0 0 0 0 0 0 
</DataArray>
<DataArray Name="Stress_11" format="ascii" type="Float64">
0 0 0 0 0 0 0 0 0 0 0 0 0 0 0 0 0 0 0 0 0 0 0 0 0 0 0 0 0 0 0 0 0 0 0 0 0 0 0 0 0 0 0 0 0 0 0 0 0 0 0 0 0 0 0 0 0 0 0 0 0 0 0 0 0 0 0 0 0 0 0 0 0 0 0 0 0 0 0 0 0 0 0 0 0 0 0 0 0 0 0 0 0 0 0 0 0 0 0 0 0 0 0 0 0 0 0 0 0 0 0 0 0 0 0 0 0 0 0 0 0 0 0 0 0 0 0 0 0 0 0 0 0 0 0 0 0 0 0 0 0 0 0 0 
</DataArray>
<DataArray Name="Stress_22" format="ascii" type="Float64">
0 0 0 0 0 0 0 0 0 0 0 0 0 0 0 0 0 0 0 0 0 0 0 0 0 0 0 0 0 0 0 0 0 0 0 0 0 0 0 0 0 0 0 0 0 0 0 0 0 0 0 0 0 0 0 0 0 0 0 0 0 0 0 0 0 0 0 0 0 0 0 0 0 0 0 0 0 0 0 0 0 0 0 0 0 0 0 0 0 0 0 0 0 0 0 0 0 0 0 0 0 0 0 0 0 0 0 0 0 0 0 0 0 0 0 0 0 0 0 0 0 0 0 0 0 0 0 0 0 0 0 0 0 0 0 0 0 0 0 0 0 0 0 0 
</DataArray>
<DataArray Name="Stress_12" format="ascii" type="Float64">
0 0 0 0 0 0 0 0 0 0 0 0 0 0 0 0 0 0 0 0 0 0 0 0 0 0 0 0 0 0 0 0 0 0 0 0 0 0 0 0 0 0 0 0 0 0 0 0 0 0 0 0 0 0 0 0 0 0 0 0 0 0 0 0 0 0 0 0 0 0 0 0 0 0 0 0 0 0 0 0 0 0 0 0 0 0 0 0 0 0 0 0 0 0 0 0 0 0 0 0 0 0 0 0 0 0 0 0 0 0 0 0 0 0 0 0 0 0 0 0 0 0 0 0 0 0 0 0 0 0 0 0 0 0 0 0 0 0 0 0 0 0 0 0 
</DataArray>
<DataArray Name="Stress_13" format="ascii" type="Float64">
978668 971105 964355 1.00023e+06 966812 935757 993380 958624 926233 980643 946241 914175 963596 929788 898267 942413 909347 878523 917198 885012 855012 888050 856894 827842 855102 825102 797137 818502 789779 763007 778387 751073 725608 734942 709153 685113 688345 664195 641683 638806 616390 595500 586520 565948 546757 531737 513079 495687 474683 458019 442498 415574 401001 387401 354703 342248 330651 292300 282043 272479 228657 220633 213154 164021 158272 152919 98694.3 95231.3 92003.3 32945.9 31789.2 30710.5 -32945.9 -31789.2 -30710.5 -98694.3 -95231.3 -92003.3 -164021 -158272 -152919 -228657 -220633 -213154 -292300 -282043 -272479 -354703 -342248 -330651 -415574 -401001 -387401 -474683 -458019 -442498 -531737 -513079 -495687 -586520 -565948 -546757 -638806 -616390 -595500 -688345 -664195 -641683 -734942 -709153 -685113 -778387 -751073 -725608 -818502 -789779 -763007 -855102 -825102 -797137 -888050 -856894 -827842 -917198 -885012 -855012 -942413 -909347 -878523 -963596 -929788 -898267 -980643 -946241 -914175 -993380 -958624 -926233 -1.00023e+06 -966812 -935757 -978668 -971105 -964355 
</DataArray>
<DataArray Name="Stress_23" format="ascii" type="Float64">
-1.19349e+06 -1.17833e+06 -1.19625e+06 -1.14729e+06 -1.14905e+06 -1.15403e+06 -1.08285e+06 -1.0886e+06 -1.09389e+06 -1.01832e+06 -1.02632e+06 -1.03382e+06 -954668 -964928 -974488 -892267 -904722 -916320 -831396 -845969 -859569 -772287 -788951 -804472 -715232 -733891 -751282 -660449 -681022 -700213 -608163 -630580 -651470 -558625 -582774 -605287 -512028 -537817 -561856 -468583 -495896 -521362 -428468 -457191 -483963 -391867 -421868 -449833 -358919 -390076 -419128 -329771 -361957 -391958 -304557 -337622 -368447 -283373 -317182 -348703 -266319 -300725 -332803 -253463 -288327 -320826 -244867 -280033 -312811 -240555 -275870 -308791 -240555 -275870 -308791 -244867 -280033 -312811 -253463 -288327 -320826 -266319 -300725 -332803 -283373 -317182 -348703 -304557 -337622 -368447 -329771 -361957 -391958 -358919 -390076 -419128 -391867 -421868 -449833 -428468 -457191 -483963 -468583 -495896 -521362 -512028 -537817 -561856 -558625 -582774 -605287 -608163 -630580 -651470 -660449 -681022 -700213 -715232 -733891 -751282 -772287 -788951 -804472 -831396 -845969 -859569 -892267 -904722 -916320 -954668 -964928 -974488 -1.01832e+06 -1.02632e+06 -1.03382e+06 -1.08285e+06 -1.0886e+06 -1.09389e+06 -1.14729e+06 -1.14905e+06 -1.15403e+06 -1.19349e+06 -1.17833e+06 -1.19625e+06 
</DataArray>
<DataArray Name="Stress_33" format="ascii" type="Float64">
0 0 0 0 0 0 0 0 0 0 0 0 0 0 0 0 0 0 0 0 0 0 0 0 0 0 0 0 0 0 0 0 0 0 0 0 0 0 0 0 0 0 0 0 0 0 0 0 0 0 0 0 0 0 0 0 0 0 0 0 0 0 0 0 0 0 0 0 0 0 0 0 0 0 0 0 0 0 0 0 0 0 0 0 0 0 0 0 0 0 0 0 0 0 0 0 0 0 0 0 0 0 0 0 0 0 0 0 0 0 0 0 0 0 0 0 0 0 0 0 0 0 0 0 0 0 0 0 0 0 0 0 0 0 0 0 0 0 0 0 0 0 0 0 
</DataArray>
</CellData>
<Points>
<DataArray NumberOfComponents="3" format="ascii" type="Float64">
0 0.09 0 -0.06364 0.06364 0 -0.005886 0.089807 0 -0.011747 0.08923 0 -0.017558 0.088271 0 -0.023294 0.086933 0 -0.02893 0.085224 0 -0.034442 0.083149 0 -0.039806 0.080719 0 -0.045 0.077942 0 -0.050001 0.074832 0 -0.054789 0.071402 0 -0.059341 0.067666 0 -0.070711 0.070711 0 -0.065997 0.065997 0 -0.068354 0.068354 0 0 0.1 0 -0.00654 0.099786 0 -0.013053 0.099144 0 -0.019509 0.098079 0 -0.025882 0.096593 0 -0.032144 0.094693 0 -0.038268 0.092388 0 -0.044229 0.089687 0 -0.05 0.086603 0 -0.055557 0.083147 0 -0.060876 0.079335 0 -0.065935 0.075184 0 0 0.093333 0 0 0.096667 0 -0.006104 0.093133 0 -0.012182 0.092535 0 -0.018208 0.09154 0 -0.024156 0.090153 0 -0.030001 0.08838 0 -0.035717 0.086229 0 -0.04128 0.083708 0 -0.046667 0.080829 0 -0.051853 0.077604 0 -0.056818 0.074046 0 -0.061539 0.070172 0 -0.006322 0.09646 0 -0.012618 0.09584 0 -0.018859 0.094809 0 -0.025019 0.093373 0 -0.031072 0.091537 0 -0.036993 0.089308 0 -0.042755 0.086698 0 -0.048333 0.083716 0 -0.053705 0.080375 0 -0.058847 0.076691 0 -0.063737 0.072678 0 -0.09 0 0 -0.067666 0.059341 0 -0.071402 0.054789 0 -0.074832 0.050001 0 -0.077942 0.045 0 -0.080719 0.039806 0 -0.083149 0.034442 0 -0.085224 0.02893 0 -0.086933 0.023294 0 -0.088271 0.017558 0 -0.08923 0.011747 0 -0.089807 0.005886 0 -0.1 0 0 -0.093333 0 0 -0.096667 0 0 -0.075184 0.065935 0 -0.079335 0.060876 0 -0.083147 0.055557 0 -0.086603 0.05 0 -0.089687 0.044229 0 -0.092388 0.038268 0 -0.094693 0.032144 0 -0.096593 0.025882 0 -0.098079 0.019509 0 -0.099144 0.013053 0 -0.099786 0.00654 0 -0.070172 0.061539 0 -0.074046 0.056818 0 -0.077604 0.051853 0 -0.080829 0.046667 0 -0.083708 0.04128 0 -0.086229 0.035717 0 -0.08838 0.030001 0 -0.090153 0.024156 0 -0.09154 0.018208 0 -0.092535 0.012182 0 -0.093133 0.006104 0 -0.072678 0.063737 0 -0.076691 0.058847 0 -0.080375 0.053705 0 -0.083716 0.048333 0 -0.086698 0.042755 0 -0.089308 0.036993 0 -0.091537 0.031072 0 -0.093373 0.025019 0 -0.094809 0.018859 0 -0.09584 0.012618 0 -0.09646 0.006322 0 -0.06364 -0.06364 0 -0.089807 -0.005886 0 -0.08923 -0.011747 0 -0.088271 -0.017558 0 -0.086933 -0.023294 0 -0.085224 -0.02893 0 -0.083149 -0.034442 0 -0.080719 -0.039806 0 -0.077942 -0.045 0 -0.074832 -0.050001 0 -0.071402 -0.054789 0 -0.067666 -0.059341 0 -0.070711 -0.070711 0 -0.065997 -0.065997 0 -0.068354 -0.068354 0 -0.099786 -0.00654 0 -0.099144 -0.013053 0 -0.098079 -0.019509 0 -0.096593 -0.025882 0 -0.094693 -0.032144 0 -0.092388 -0.038268 0 -0.089687 -0.044229 0 -0.086603 -0.05 0 -0.083147 -0.055557 0 -0.079335 -0.060876 0 -0.075184 -0.065935 0 -0.093133 -0.006104 0 -0.092535 -0.012182 0 -0.09154 -0.018208 0 -0.090153 -0.024156 0 -0.08838 -0.030001 0 -0.086229 -0.035717 0 -0.083708 -0.04128 0 -0.080829 -0.046667 0 -0.077604 -0.051853 0 -0.074046 -0.056818 0 -0.070172 -0.061539 0 -0.09646 -0.006322 0 -0.09584 -0.012618 0 -0.094809 -0.018859 0 -0.093373 -0.025019 0 -0.091537 -0.031072 0 -0.089308 -0.036993 0 -0.086698 -0.042755 0 -0.083716 -0.048333 0 -0.080375 -0.053705 0 -0.076691 -0.058847 0 -0.072678 -0.063737 0 0 -0.09 0 -0.059341 -0.067666 0 -0.054789 -0.071402 0 -0.050001 -0.074832 0 -0.045 -0.077942 0 -0.039806 -0.080719 0 -0.034442 -0.083149 0 -0.02893 -0.085224 0 -0.023294 -0.086933 0 -0.017558 -0.088271 0 -0.011747 -0.08923 0 -0.005886 -0.089807 0 0 -0.1 0 0 -0.093333 0 0 -0.096667 0 -0.065935 -0.075184 0 -0.060876 -0.079335 0 -0.055557 -0.083147 0 -0.05 -0.086603 0 -0.044229 -0.089687 0 -0.038268 -0.092388 0 -0.032144 -0.094693 0 -0.025882 -0.096593 0 -0.019509 -0.098079 0 -0.013053 -0.099144 0 -0.00654 -0.099786 0 -0.061539 -0.070172 0 -0.056818 -0.074046 0 -0.051853 -0.077604 0 -0.046667 -0.080829 0 -0.04128 -0.083708 0 -0.035717 -0.086229 0 -0.030001 -0.08838 0 -0.024156 -0.090153 0 -0.018208 -0.09154 0 -0.012182 -0.092535 0 -0.006104 -0.093133 0 -0.063737 -0.072678 0 -0.058847 -0.076691 0 -0.053705 -0.080375 0 -0.048333 -0.083716 0 -0.042755 -0.086698 0 -0.036993 -0.089308 0 -0.031072 -0.091537 0 -0.025019 -0.093373 0 -0.018859 -0.094809 0 -0.012618 -0.09584 0 -0.006322 -0.09646 0 
</DataArray>
</Points>
<Cells>
<DataArray Name="connectivity" format="ascii" type="Int64">
0 28 30 2 28 29 41 30 29 16 17 41 2 30 31 3 30 41 42 31 41 17 18 42 3 31 32 4 31 42 43 32 42 18 19 43 4 32 33 5 32 43 44 33 43 19 20 44 5 33 34 6 33 44 45 34 44 20 21 45 6 34 35 7 34 45 46 35 45 21 22 46 7 35 36 8 35 46 47 36 46 22 23 47 8 36 37 9 36 47 48 37 47 23 24 48 9 37 38 10 37 48 49 38 48 24 25 49 10 38 39 11 38 49 50 39 49 25 26 50 11 39 40 12 39 50 51 40 50 26 27 51 12 40 14 1 40 51 15 14 51 27 13 15 1 14 78 53 14 15 89 78 15 13 67 89 53 78 79 54 78 89 90 79 89 67 68 90 54 79 80 55 79 90 91 80 90 68 69 91 55 80 81 56 80 91 92 81 91 69 70 92 56 81 82 57 81 92 93 82 92 70 71 93 57 82 83 58 82 93 94 83 93 71 72 94 58 83 84 59 83 94 95 84 94 72 73 95 59 84 85 60 84 95 96 85 95 73 74 96 60 85 86 61 85 96 97 86 96 74 75 97 61 86 87 62 86 97 98 87 97 75 76 98 62 87 88 63 87 98 99 88 98 76 77 99 63 88 65 52 88 99 66 65 99 77 64 66 52 65 126 101 65 66 137 126 66 64 115 137 101 126 127 102 126 137 138 127 137 115 116 138 102 127 128 103 127 138 139 128 138 116 117 139 103 128 129 104 128 139 140 129 139 117 118 140 104 129 130 105 129 140 141 130 140 118 119 141 105 130 131 106 130 141 142 131 141 119 120 142 106 131 132 107 131 142 143 132 142 120 121 143 107 132 133 108 132 143 144 133 143 121 122 144 108 133 134 109 133 144 145 134 144 122 123 145 109 134 135 110 134 145 146 135 145 123 124 146 110 135 136 111 135 146 147 136 146 124 125 147 111 136 113 100 136 147 114 113 147 125 112 114 100 113 174 149 113 114 185 174 114 112 163 185 149 174 175 150 174 185 186 175 185 163 164 186 150 175 176 151 175 186 187 176 186 164 165 187 151 176 177 152 176 187 188 177 187 165 166 188 152 177 178 153 177 188 189 178 188 166 167 189 153 178 179 154 178 189 190 179 189 167 168 190 154 179 180 155 179 190 191 180 190 168 169 191 155 180 181 156 180 191 192 181 191 169 170 192 156 181 182 157 181 192 193 182 192 170 171 193 157 182 183 158 182 193 194 183 193 171 172 194 158 183 184 159 183 194 195 184 194 172 173 195 159 184 161 148 184 195 162 161 195 173 160 162 
</DataArray>
<DataArray Name="offsets" format="ascii" type="Int64">
4 8 12 16 20 24 28 32 36 40 44 48 52 56 60 64 68 72 76 80 84 88 92 96 100 104 108 112 116 120 124 128 132 136 140 144 148 152 156 160 164 168 172 176 180 184 188 192 196 200 204 208 212 216 220 224 228 232 236 240 244 248 252 256 260 264 268 272 276 280 284 288 292 296 300 304 308 312 316 320 324 328 332 336 340 344 348 352 356 360 364 368 372 376 380 384 388 392 396 400 404 408 412 416 420 424 428 432 436 440 444 448 452 456 460 464 468 472 476 480 484 488 492 496 500 504 508 512 516 520 524 528 532 536 540 544 548 552 556 560 564 568 572 576 
</DataArray>
<DataArray Name="types" format="ascii" type="Int8">
9 9 9 9 9 9 9 9 9 9 9 9 9 9 9 9 9 9 9 9 9 9 9 9 9 9 9 9 9 9 9 9 9 9 9 9 9 9 9 9 9 9 9 9 9 9 9 9 9 9 9 9 9 9 9 9 9 9 9 9 9 9 9 9 9 9 9 9 9 9 9 9 9 9 9 9 9 9 9 9 9 9 9 9 9 9 9 9 9 9 9 9 9 9 9 9 9 9 9 9 9 9 9 9 9 9 9 9 9 9 9 9 9 9 9 9 9 9 9 9 9 9 9 9 9 9 9 9 9 9 9 9 9 9 9 9 9 9 9 9 9 9 9 9 
</DataArray>
</Cells>
</Piece>
</UnstructuredGrid>
</VTKFile>
