<?xml version="1.0"?>
<VTKFile byte_order="LittleEndian" type="UnstructuredGrid" version="0.1">
<UnstructuredGrid>
<Piece NumberOfCells="144" NumberOfPoints="196">
<PointData>
<DataArray Name="Warping_X" format="ascii" type="Float64">
0 -0 0 0 0 0 0 0 0 0 0 0 0 0 0 0 0 0 0 0 0 0 0 0 0 0 0 0 0 0 0 0 0 0 0 0 0 0 0 0 0 0 0 0 0 0 0 0 0 0 0 0 0 0 0 0 0 0 0 0 0 0 0 0 0 0 -0 0 0 0 0 0 0 0 0 0 0 0 0 0 0 0 0 0 0 0 0 0 0 0 0 0 0 0 0 0 0 0 0 0 0 0 0 0 0 0 0 0 0 0 0 0 0 0 0 0 0 0 0 0 0 0 0 0 0 0 0 0 0 0 0 0 0 0 0 0 0 0 0 0 0 0 0 0 0 0 0 0 0 0 0 0 0 0 0 0 0 0 0 0 0 0 0 0 0 0 0 0 0 0 0 0 0 0 0 0 0 0 0 0 0 0 0 0 0 0 0 0 0 0 0 0 0 0 0 0 
</DataArray>
<DataArray Name="Warping_Y" format="ascii" type="Float64">
0 -0 0 0 0 0 -0 0 0 0 0 0 0 0 0 0 0 0 0 0 0 0 0 0 0 0 0 0 0 -0 0 0 0 0 0 0 0 0 0 0 0 0 0 0 0 0 0 0 0 0 0 0 -0 0 0 0 0 0 0 0 0 0 0 0 0 0 0 0 0 0 0 0 0 0 0 0 0 0 0 0 0 0 0 0 0 0 0 0 0 0 0 0 0 0 0 0 0 0 0 0 -0 0 0 0 0 0 0 0 0 0 0 0 0 0 0 0 0 0 0 0 0 0 0 0 0 0 0 0 0 0 0 0 0 0 0 0 0 0 0 0 0 0 0 0 0 0 0 0 0 0 0 0 0 0 0 0 0 0 0 0 0 0 0 0 0 0 0 0 0 0 0 0 0 0 0 0 0 0 0 0 0 0 0 0 0 0 0 0 0 0 0 0 0 0 0 0 
</DataArray>
<DataArray Name="Warping_Z" format="ascii" type="Float64">
0 0 0 0 0 0 0 0 0 0 0 0 0 0 0 0 0 0 0 0 0 0 0 0 0 0 0 0 0 0 0 0 0 0 0 0 0 0 0 0 0 0 0 0 0 0 0 0 0 0 0 0 0 0 0 0 0 0 0 0 0 0 0 0 0 0 0 0 0 0 0 0 0 0 0 0 0 0 0 0 0 0 0 0 0 0 0 0 0 0 0 0 0 0 0 0 0 0 0 0 0 0 0 0 0 0 0 0 0 0 0 0 0 0 0 0 0 0 0 0 0 0 0 0 0 0 0 0 0 0 0 0 0 0 0 0 0 0 0 0 0 0 0 0 0 0 0 0 0 0 0 0 0 0 0 0 0 0 0 0 0 0 0 0 0 0 0 0 0 0 0 0 0 0 0 0 0 0 0 0 0 0 0 0 0 0 0 0 0 0 0 0 0 0 0 0 
</DataArray>
</PointData>
<CellData>
<DataArray Name="MaterialId" format="ascii" type="Float64">
1 1 1 1 1 1 1 1 1 1 1 1 1 1 1 1 1 1 1 1 1 1 1 1 1 1 1 1 1 1 1 1 1 1 1 1 1 1 1 1 1 1 1 1 1 1 1 1 1 1 1 1 1 1 1 1 1 1 1 1 1 1 1 1 1 1 1 1 1 1 1 1 1 1 1 1 1 1 1 1 1 1 1 1 1 1 1 1 1 1 1 1 1 1 1 1 1 1 1 1 1 1 1 1 1 1 1 1 1 1 1 1 1 1 1 1 1 1 1 1 1 1 1 1 1 1 1 1 1 1 1 1 1 1 1 1 1 1 1 1 1 1 1 1 
</DataArray>
<DataArray Name="FiberAngle" format="ascii" type="Float64">
0 0 0 0 0 0 0 0 0 0 0 0 0 0 0 0 0 0 0 0 0 0 0 0 0 0 0 0 0 0 0 0 0 0 0 0 0 0 0 0 0 0 0 0 0 0 0 0 0 0 0 0 0 0 0 0 0 0 0 0 0 0 0 0 0 0 0 0 0 0 0 0 0 0 0 0 0 0 0 0 0 0 0 0 0 0 0 0 0 0 0 0 0 0 0 0 0 0 0 0 0 0 0 0 0 0 0 0 0 0 0 0 0 0 0 0 0 0 0 0 0 0 0 0 0 0 0 0 0 0 0 0 0 0 0 0 0 0 0 0 0 0 0 0 
</DataArray>
<DataArray Name="Strain_11" format="ascii" type="Float64">
0 0 0 0 0 0 0 0 0 0 0 0 0 0 0 0 0 0 0 0 0 0 0 0 0 0 0 0 0 0 0 0 0 0 0 0 0 0 0 0 0 0 0 0 0 0 0 0 0 0 0 0 0 0 0 0 0 0 0 0 0 0 0 0 0 0 0 0 0 0 0 0 0 0 0 0 0 0 0 0 0 0 0 0 0 0 0 0 0 0 0 0 0 0 0 0 0 0 0 0 0 0 0 0 0 0 0 0 0 0 0 0 0 0 0 0 0 0 0 0 0 0 0 0 0 0 0 0 0 0 0 0 0 0 0 0 0 0 0 0 0 0 0 0 
</DataArray>
<DataArray Name="Strain_22" format="ascii" type="Float64">
0 0 0 0 0 0 0 0 0 0 0 0 0 0 0 0 0 0 0 0 0 0 0 0 0 0 0 0 0 0 0 0 0 0 0 0 0 0 0 0 0 0 0 0 0 0 0 0 0 0 0 0 0 0 0 0 0 0 0 0 0 0 0 0 0 0 0 0 0 0 0 0 0 0 0 0 0 0 0 0 0 0 0 0 0 0 0 0 0 0 0 0 0 0 0 0 0 0 0 0 0 0 0 0 0 0 0 0 0 0 0 0 0 0 0 0 0 0 0 0 0 0 0 0 0 0 0 0 0 0 0 0 0 0 0 0 0 0 0 0 0 0 0 0 
</DataArray>
<DataArray Name="Strain_12" format="ascii" type="Float64">
0 0 0 0 0 0 0 0 0 0 0 0 0 0 0 0 0 0 0 0 0 0 0 0 0 0 0 0 0 0 0 0 0 0 0 0 0 0 0 0 0 0 0 0 0 0 0 0 0 0 0 0 0 0 0 0 0 0 0 0 0 0 0 0 0 0 0 0 0 0 0 0 0 0 0 0 0 0 0 0 0 0 0 0 0 0 0 0 0 0 0 0 0 0 0 0 0 0 0 0 0 0 0 0 0 0 0 0 0 0 0 0 0 0 0 0 0 0 0 0 0 0 0 0 0 0 0 0 0 0 0 0 0 0 0 0 0 0 0 0 0 0 0 0 
</DataArray>
<DataArray Name="Strain_13" format="ascii" type="Float64">
-16.4959 -16.2928 -16.0724 -13.4208 -13.1686 -12.8927 -10.6128 -10.4577 -10.2691 -8.24403 -8.18271 -8.08181 -6.33611 -6.35543 -6.33145 -4.89248 -4.97762 -5.02001 -3.90482 -4.0417 -4.13885 -3.35514 -3.52984 -3.67156 -3.21549 -3.41441 -3.59037 -3.44756 -3.65986 -3.85922 -4.01311 -4.22673 -4.44086 -4.86359 -5.06898 -5.29017 -5.94538 -6.13462 -6.35578 -7.20326 -7.3696 -7.58406 -8.58119 -8.71893 -8.92197 -10.0203 -10.1275 -10.3166 -11.4645 -11.54 -11.7133 -12.8626 -12.9051 -13.0607 -14.1627 -14.1745 -14.3123 -15.3204 -15.3039 -15.4259 -16.2956 -16.2557 -16.3639 -17.0567 -16.998 -17.095 -17.5783 -17.5067 -17.5957 -17.8432 -17.765 -17.8502 -17.8432 -17.765 -17.8502 -17.5783 -17.5067 -17.5957 -17.0567 -16.998 -17.095 -16.2956 -16.2557 -16.3639 -15.3204 -15.3039 -15.4259 -14.1627 -14.1745 -14.3123 -12.8626 -12.9051 -13.0607 -11.4645 -11.54 -11.7133 -10.0203 -10.1275 -10.3166 -8.58119 -8.71893 -8.92197 -7.20326 -7.3696 -7.58406 -5.94538 -6.13462 -6.35578 -4.86359 -5.06898 -5.29017 -4.01311 -4.22673 -4.44086 -3.44756 -3.65986 -3.85922 -3.21549 -3.41441 -3.59037 -3.35514 -3.52984 -3.67156 -3.90482 -4.0417 -4.13885 -4.89248 -4.97762 -5.02001 -6.33611 -6.35543 -6.33145 -8.24403 -8.18271 -8.08181 -10.6128 -10.4577 -10.2691 -13.4208 -13.1686 -12.8927 -16.4959 -16.2928 -16.0724 
</DataArray>
<DataArray Name="Strain_23" format="ascii" type="Float64">
0.0042021 -0.0353517 0.0217272 0.522305 0.585805 0.570729 1.28425 1.34932 1.33437 2.3264 2.37109 2.35876 3.57558 3.59204 3.57308 4.95696 4.93789 4.9057 6.39581 6.33794 6.28666 7.82338 7.72413 7.65101 9.17324 9.0347 8.93926 10.3905 10.2144 10.0967 11.4247 11.2137 11.074 12.2317 11.9919 11.8332 12.779 12.5172 12.3441 13.0424 12.7657 12.5826 13.0057 12.7218 12.5336 12.6626 12.3808 12.1923 12.0202 11.7475 11.5651 11.088 10.8328 10.6619 9.88601 9.65587 9.50096 8.44239 8.24392 8.11023 6.7917 6.63116 6.5225 4.97456 4.8564 4.77661 3.03455 2.96236 2.91355 1.0199 0.995574 0.979032 -1.0199 -0.995574 -0.979032 -3.03455 -2.96236 -2.91355 -4.97456 -4.8564 -4.77661 -6.7917 -6.63116 -6.5225 -8.44239 -8.24392 -8.11023 -9.88601 -9.65587 -9.50096 -11.088 -10.8328 -10.6619 -12.0202 -11.7475 -11.5651 -12.6626 -12.3808 -12.1923 -13.0057 -12.7218 -12.5336 -13.0424 -12.7657 -12.5826 -12.779 -12.5172 -12.3441 -12.2317 -11.9919 -11.8332 -11.4247 -11.2137 -11.074 -10.3905 -10.2144 -10.0967 -9.17324 -9.0347 -8.93926 -7.82338 -7.72413 -7.65101 -6.39581 -6.33794 -6.28666 -4.95696 -4.93789 -4.9057 -3.57558 -3.59204 -3.57308 -2.3264 -2.37109 -2.35876 -1.28425 -1.34932 -1.33437 -0.522305 -0.585805 -0.570729 -0.0042021 0.0353517 -0.0217272 
</DataArray>
<DataArray Name="Strain_33" format="ascii" type="Float64">
0 0 0 0 0 0 0 0 0 0 0 0 0 0 0 0 0 0 0 0 0 0 0 0 0 0 0 0 0 0 0 0 0 0 0 0 0 0 0 0 0 0 0 0 0 0 0 0 0 0 0 0 0 0 0 0 0 0 0 0 0 0 0 0 0 0 0 0 0 0 0 0 0 0 0 0 0 0 0 0 0 0 0 0 0 0 0 0 0 0 0 0 0 0 0 0 0 0 0 0 0 0 0 0 0 0 0 0 0 0 0 0 0 0 0 0 0 0 0 0 0 0 0 0 0 0 0 0 0 0 0 0 0 0 0 0 0 0 0 0 0 0 0 0 
</DataArray>
<DataArray Name="Stress_11" format="ascii" type="Float64">
0 0 0 0 0 0 0 0 0 0 0 0 0 0 0 0 0 0 0 0 0 0 0 0 0 0 0 0 0 0 0 0 0 0 0 0 0 0 0 0 0 0 0 0 0 0 0 0 0 0 0 0 0 0 0 0 0 0 0 0 0 0 0 0 0 0 0 0 0 0 0 0 0 0 0 0 0 0 0 0 0 0 0 0 0 0 0 0 0 0 0 0 0 0 0 0 0 0 0 0 0 0 0 0 0 0 0 0 0 0 0 0 0 0 0 0 0 0 0 0 0 0 0 0 0 0 0 0 0 0 0 0 0 0 0 0 0 0 0 0 0 0 0 0 
</DataArray>
<DataArray Name="Stress_22" format="ascii" type="Float64">
0 0 0 0 0 0 0 0 0 0 0 0 0 0 0 0 0 0 0 0 0 0 0 0 0 0 0 0 0 0 0 0 0 0 0 0 0 0 0 0 0 0 0 0 0 0 0 0 0 0 0 0 0 0 0 0 0 0 0 0 0 0 0 0 0 0 0 0 0 0 0 0 0 0 0 0 0 0 0 0 0 0 0 0 0 0 0 0 0 0 0 0 0 0 0 0 0 0 0 0 0 0 0 0 0 0 0 0 0 0 0 0 0 0 0 0 0 0 0 0 0 0 0 0 0 0 0 0 0 0 0 0 0 0 0 0 0 0 0 0 0 0 0 0 
</DataArray>
<DataArray Name="Stress_12" format="ascii" type="Float64">
0 0 0 0 0 0 0 0 0 0 0 0 0 0 0 0 0 0 0 0 0 0 0 0 0 0 0 0 0 0 0 0 0 0 0 0 0 0 0 0 0 0 0 0 0 0 0 0 0 0 0 0 0 0 0 0 0 0 0 0 0 0 0 0 0 0 0 0 0 0 0 0 0 0 0 0 0 0 0 0 0 0 0 0 0 0 0 0 0 0 0 0 0 0 0 0 0 0 0 0 0 0 0 0 0 0 0 0 0 0 0 0 0 0 0 0 0 0 0 0 0 0 0 0 0 0 0 0 0 0 0 0 0 0 0 0 0 0 0 0 0 0 0 0 
</DataArray>
<DataArray Name="Stress_13" format="ascii" type="Float64">
-687.333 -678.871 -669.688 -559.206 -548.695 -537.198 -442.205 -435.739 -427.884 -343.504 -340.949 -336.745 -264.007 -264.812 -263.813 -203.855 -207.403 -209.169 -162.702 -168.406 -172.454 -139.799 -147.078 -152.983 -133.98 -142.268 -149.6 -143.65 -152.496 -160.802 -167.214 -176.115 -185.037 -202.651 -211.209 -220.426 -247.726 -255.611 -264.826 -300.138 -307.069 -316.005 -357.553 -363.292 -371.752 -417.517 -421.984 -429.863 -477.691 -480.838 -488.056 -535.945 -537.717 -544.199 -590.115 -590.611 -596.35 -638.354 -637.669 -642.752 -678.99 -677.328 -681.836 -710.703 -708.257 -712.298 -732.436 -729.451 -733.162 -743.474 -740.213 -743.762 -743.474 -740.213 -743.762 -732.436 -729.451 -733.162 -710.703 -708.257 -712.298 -678.99 -677.328 -681.836 -638.354 -637.669 -642.752 -590.115 -590.611 -596.35 -535.945 -537.717 -544.199 -477.691 -480.838 -488.056 -417.517 -421.984 -429.863 -357.553 -363.292 -371.752 -300.138 -307.069 -316.005 -247.726 -255.611 -264.826 -202.651 -211.209 -220.426 -167.214 -176.115 -185.037 -143.65 -152.496 -160.802 -133.98 -142.268 -149.6 -139.799 -147.078 -152.983 -162.702 -168.406 -172.454 -203.855 -207.403 -209.169 -264.007 -264.812 -263.813 -343.504 -340.949 -336.745 -442.205 -435.739 -427.884 -559.206 -548.695 -537.198 -687.333 -678.871 -669.688 
</DataArray>
<DataArray Name="Stress_23" format="ascii" type="Float64">
0.175089 -1.473 0.905308 21.7629 24.4088 23.7806 53.5109 56.2221 55.599 96.9342 98.7964 98.2825 148.984 149.67 148.88 206.541 205.747 204.406 266.494 264.083 261.946 325.977 321.841 318.795 382.221 376.449 372.472 432.942 425.604 420.698 476.034 467.239 461.42 509.658 499.665 493.055 532.462 521.552 514.34 543.438 531.908 524.281 541.908 530.08 522.236 527.614 515.873 508.016 500.846 489.482 481.883 462.004 451.371 444.248 411.92 402.331 395.876 351.769 343.499 337.929 282.99 276.301 271.773 207.275 202.352 199.027 126.44 123.433 121.399 42.4962 41.4826 40.7933 -42.4962 -41.4826 -40.7933 -126.44 -123.433 -121.399 -207.275 -202.352 -199.027 -282.99 -276.301 -271.773 -351.769 -343.499 -337.929 -411.92 -402.331 -395.876 -462.004 -451.371 -444.248 -500.846 -489.482 -481.883 -527.614 -515.873 -508.016 -541.908 -530.08 -522.236 -543.438 -531.908 -524.281 -532.462 -521.552 -514.34 -509.658 -499.665 -493.055 -476.034 -467.239 -461.42 -432.942 -425.604 -420.698 -382.221 -376.449 -372.472 -325.977 -321.841 -318.795 -266.494 -264.083 -261.946 -206.541 -205.747 -204.406 -148.984 -149.67 -148.88 -96.9342 -98.7964 -98.2825 -53.5109 -56.2221 -55.599 -21.7629 -24.4088 -23.7806 -0.175089 1.473 -0.905308 
</DataArray>
<DataArray Name="Stress_33" format="ascii" type="Float64">
0 0 0 0 0 0 0 0 0 0 0 0 0 0 0 0 0 0 0 0 0 0 0 0 0 0 0 0 0 0 0 0 0 0 0 0 0 0 0 0 0 0 0 0 0 0 0 0 0 0 0 0 0 0 0 0 0 0 0 0 0 0 0 0 0 0 0 0 0 0 0 0 0 0 0 0 0 0 0 0 0 0 0 0 0 0 0 0 0 0 0 0 0 0 0 0 0 0 0 0 0 0 0 0 0 0 0 0 0 0 0 0 0 0 0 0 0 0 0 0 0 0 0 0 0 0 0 0 0 0 0 0 0 0 0 0 0 0 0 0 0 0 0 0 
</DataArray>
</CellData>
<Points>
<DataArray NumberOfComponents="3" format="ascii" type="Float64">
0 0.09 0 -0.06364 0.06364 0 -0.005886 0.089807 0 -0.011747 0.08923 0 -0.017558 0.088271 0 -0.023294 0.086933 0 -0.02893 0.085224 0 -0.034442 0.083149 0 -0.039806 0.080719 0 -0.045 0.077942 0 -0.050001 0.074832 0 -0.054789 0.071402 0 -0.059341 0.067666 0 -0.070711 0.070711 0 -0.065997 0.065997 0 -0.068354 0.068354 0 0 0.1 0 -0.00654 0.099786 0 -0.013053 0.099144 0 -0.019509 0.098079 0 -0.025882 0.096593 0 -0.032144 0.094693 0 -0.038268 0.092388 0 -0.044229 0.089687 0 -0.05 0.086603 0 -0.055557 0.083147 0 -0.060876 0.079335 0 -0.065935 0.075184 0 0 0.093333 0 0 0.096667 0 -0.006104 0.093133 0 -0.012182 0.092535 0 -0.018208 0.09154 0 -0.024156 0.090153 0 -0.030001 0.08838 0 -0.035717 0.086229 0 -0.04128 0.083708 0 -0.046667 0.080829 0 -0.051853 0.077604 0 -0.056818 0.074046 0 -0.061539 0.070172 0 -0.006322 0.09646 0 -0.012618 0.09584 0 -0.018859 0.094809 0 -0.025019 0.093373 0 -0.031072 0.091537 0 -0.036993 0.089308 0 -0.042755 0.086698 0 -0.048333 0.083716 0 -0.053705 0.080375 0 -0.058847 0.076691 0 -0.063737 0.072678 0 -0.09 0 0 -0.067666 0.059341 0 -0.071402 0.054789 0 -0.074832 0.050001 0 -0.077942 0.045 0 -0.080719 0.039806 0 -0.083149 0.034442 0 -0.085224 0.02893 0 -0.086933 0.023294 0 -0.088271 0.017558 0 -0.08923 0.011747 0 -0.089807 0.005886 0 -0.1 0 0 -0.093333 0 0 -0.096667 0 0 -0.075184 0.065935 0 -0.079335 0.060876 0 -0.083147 0.055557 0 -0.086603 0.05 0 -0.089687 0.044229 0 -0.092388 0.038268 0 -0.094693 0.032144 0 -0.096593 0.025882 0 -0.098079 0.019509 0 -0.099144 0.013053 0 -0.099786 0.00654 0 -0.070172 0.061539 0 -0.074046 0.056818 0 -0.077604 0.051853 0 -0.080829 0.046667 0 -0.083708 0.04128 0 -0.086229 0.035717 0 -0.08838 0.030001 0 -0.090153 0.024156 0 -0.09154 0.018208 0 -0.092535 0.012182 0 -0.093133 0.006104 0 -0.072678 0.063737 0 -0.076691 0.058847 0 -0.080375 0.053705 0 -0.083716 0.048333 0 -0.086698 0.042755 0 -0.089308 0.036993 0 -0.091537 0.031072 0 -0.093373 0.025019 0 -0.094809 0.018859 0 -0.09584 0.012618 0 -0.09646 0.006322 0 -0.06364 -0.06364 0 -0.089807 -0.005886 0 -0.08923 -0.011747 0 -0.088271 -0.017558 0 -0.086933 -0.023294 0 -0.085224 -0.02893 0 -0.083149 -0.034442 0 -0.080719 -0.039806 0 -0.077942 -0.045 0 -0.074832 -0.050001 0 -0.071402 -0.054789 0 -0.067666 -0.059341 0 -0.070711 -0.070711 0 -0.065997 -0.065997 0 -0.068354 -0.068354 0 -0.099786 -0.00654 0 -0.099144 -0.013053 0 -0.098079 -0.019509 0 -0.096593 -0.025882 0 -0.094693 -0.032144 0 -0.092388 -0.038268 0 -0.089687 -0.044229 0 -0.086603 -0.05 0 -0.083147 -0.055557 0 -0.079335 -0.060876 0 -0.075184 -0.065935 0 -0.093133 -0.006104 0 -0.092535 -0.012182 0 -0.09154 -0.018208 0 -0.090153 -0.024156 0 -0.08838 -0.030001 0 -0.086229 -0.035717 0 -0.083708 -0.04128 0 -0.080829 -0.046667 0 -0.077604 -0.051853 0 -0.074046 -0.056818 0 -0.070172 -0.061539 0 -0.09646 -0.006322 0 -0.09584 -0.012618 0 -0.094809 -0.018859 0 -0.093373 -0.025019 0 -0.091537 -0.031072 0 -0.089308 -0.036993 0 -0.086698 -0.042755 0 -0.083716 -0.048333 0 -0.080375 -0.053705 0 -0.076691 -0.058847 0 -0.072678 -0.063737 0 0 -0.09 0 -0.059341 -0.067666 0 -0.054789 -0.071402 0 -0.050001 -0.074832 0 -0.045 -0.077942 0 -0.039806 -0.080719 0 -0.034442 -0.083149 0 -0.02893 -0.085224 0 -0.023294 -0.086933 0 -0.017558 -0.088271 0 -0.011747 -0.08923 0 -0.005886 -0.089807 0 0 -0.1 0 0 -0.093333 0 0 -0.096667 0 -0.065935 -0.075184 0 -0.060876 -0.079335 0 -0.055557 -0.083147 0 -0.05 -0.086603 0 -0.044229 -0.089687 0 -0.038268 -0.092388 0 -0.032144 -0.094693 0 -0.025882 -0.096593 0 -0.019509 -0.098079 0 -0.013053 -0.099144 0 -0.00654 -0.099786 0 -0.061539 -0.070172 0 -0.056818 -0.074046 0 -0.051853 -0.077604 0 -0.046667 -0.080829 0 -0.04128 -0.083708 0 -0.035717 -0.086229 0 -0.030001 -0.08838 0 -0.024156 -0.090153 0 -0.018208 -0.09154 0 -0.012182 -0.092535 0 -0.006104 -0.093133 0 -0.063737 -0.072678 0 -0.058847 -0.076691 0 -0.053705 -0.080375 0 -0.048333 -0.083716 0 -0.042755 -0.086698 0 -0.036993 -0.089308 0 -0.031072 -0.091537 0 -0.025019 -0.093373 0 -0.018859 -0.094809 0 -0.012618 -0.09584 0 -0.006322 -0.09646 0 
</DataArray>
</Points>
<Cells>
<DataArray Name="connectivity" format="ascii" type="Int64">
0 28 30 2 28 29 41 30 29 16 17 41 2 30 31 3 30 41 42 31 41 17 18 42 3 31 32 4 31 42 43 32 42 18 19 43 4 32 33 5 32 43 44 33 43 19 20 44 5 33 34 6 33 44 45 34 44 20 21 45 6 34 35 7 34 45 46 35 45 21 22 46 7 35 36 8 35 46 47 36 46 22 23 47 8 36 37 9 36 47 48 37 47 23 24 48 9 37 38 10 37 48 49 38 48 24 25 49 10 38 39 11 38 49 50 39 49 25 26 50 11 39 40 12 39 50 51 40 50 26 27 51 12 40 14 1 40 51 15 14 51 27 13 15 1 14 78 53 14 15 89 78 15 13 67 89 53 78 79 54 78 89 90 79 89 67 68 90 54 79 80 55 79 90 91 80 90 68 69 91 55 80 81 56 80 91 92 81 91 69 70 92 56 81 82 57 81 92 93 82 92 70 71 93 57 82 83 58 82 93 94 83 93 71 72 94 58 83 84 59 83 94 95 84 94 72 73 95 59 84 85 60 84 95 96 85 95 73 74 96 60 85 86 61 85 96 97 86 96 74 75 97 61 86 87 62 86 97 98 87 97 75 76 98 62 87 88 63 87 98 99 88 98 76 77 99 63 88 65 52 88 99 66 65 99 77 64 66 52 65 126 101 65 66 137 126 66 64 115 137 101 126 127 102 126 137 138 127 137 115 116 138 102 127 128 103 127 138 139 128 138 116 117 139 103 128 129 104 128 139 140 129 139 117 118 140 104 129 130 105 129 140 141 130 140 118 119 141 105 130 131 106 130 141 142 131 141 119 120 142 106 131 132 107 131 142 143 132 142 120 121 143 107 132 133 108 132 143 144 133 143 121 122 144 108 133 134 109 133 144 145 134 144 122 123 145 109 134 135 110 134 145 146 135 145 123 124 146 110 135 136 111 135 146 147 136 146 124 125 147 111 136 113 100 136 147 114 113 147 125 112 114 100 113 174 149 113 114 185 174 114 112 163 185 149 174 175 150 174 185 186 175 185 163 164 186 150 175 176 151 175 186 187 176 186 164 165 187 151 176 177 152 176 187 188 177 187 165 166 188 152 177 178 153 177 188 189 178 188 166 167 189 153 178 179 154 178 189 190 179 189 167 168 190 154 179 180 155 179 190 191 180 190 168 169 191 155 180 181 156 180 191 192 181 191 169 170 192 156 181 182 157 181 192 193 182 192 170 171 193 157 182 183 158 182 193 194 183 193 171 172 194 158 183 184 159 183 194 195 184 194 172 173 195 159 184 161 148 184 195 162 161 195 173 160 162 
</DataArray>
<DataArray Name="offsets" format="ascii" type="Int64">
4 8 12 16 20 24 28 32 36 40 44 48 52 56 60 64 68 72 76 80 84 88 92 96 100 104 108 112 116 120 124 128 132 136 140 144 148 152 156 160 164 168 172 176 180 184 188 192 196 200 204 208 212 216 220 224 228 232 236 240 244 248 252 256 260 264 268 272 276 280 284 288 292 296 300 304 308 312 316 320 324 328 332 336 340 344 348 352 356 360 364 368 372 376 380 384 388 392 396 400 404 408 412 416 420 424 428 432 436 440 444 448 452 456 460 464 468 472 476 480 484 488 492 496 500 504 508 512 516 520 524 528 532 536 540 544 548 552 556 560 564 568 572 576 
</DataArray>
<DataArray Name="types" format="ascii" type="Int8">
9 9 9 9 9 9 9 9 9 9 9 9 9 9 9 9 9 9 9 9 9 9 9 9 9 9 9 9 9 9 9 9 9 9 9 9 9 9 9 9 9 9 9 9 9 9 9 9 9 9 9 9 9 9 9 9 9 9 9 9 9 9 9 9 9 9 9 9 9 9 9 9 9 9 9 9 9 9 9 9 9 9 9 9 9 9 9 9 9 9 9 9 9 9 9 9 9 9 9 9 9 9 9 9 9 9 9 9 9 9 9 9 9 9 9 9 9 9 9 9 9 9 9 9 9 9 9 9 9 9 9 9 9 9 9 9 9 9 9 9 9 9 9 9 
</DataArray>
</Cells>
</Piece>
</UnstructuredGrid>
</VTKFile>
