<?xml version="1.0"?>
<VTKFile byte_order="LittleEndian" type="UnstructuredGrid" version="0.1">
<UnstructuredGrid>
<Piece NumberOfCells="232" NumberOfPoints="342">
<PointData>
<DataArray Name="Warping_X" format="ascii" type="Float64">
0.0405864 0.0373255 0.0389515 0.0380129 0.0376795 0.0412565 0.0396248 0.0409289 0.039296 0.0412565 0.0380129 0.0396248 0.0373255 0.0376795 0.0405864 0.0389515 0.0409289 0.039296 -0.0193786 -0.020949 -0.0201664 -0.0201843 -0.0205579 -0.0186091 -0.0194067 -0.0189845 -0.0197808 -0.0186091 -0.0201843 -0.0194067 -0.020949 -0.0205579 -0.0193786 -0.0201664 -0.0189845 -0.0197808 -0.0382278 -0.0380967 -0.0381643 -0.037315 -0.0376967 -0.0374515 -0.0373933 -0.0378313 -0.0377747 -0.0374515 -0.037315 -0.0373933 -0.0380967 -0.0376967 -0.0382278 -0.0381643 -0.0378313 -0.0377747 0.0504974 0.0540276 0.0522587 0.0547323 0.0543864 0.0512202 0.0529662 0.0508685 0.0526183 0.0512202 0.0547323 0.0529662 0.0540276 0.0543864 0.0504974 0.0522587 0.0508685 0.0526183 0.0425368 0.0435305 0.0442406 0.0446667 0.0448087 0.0446667 0.0442406 0.0435305 0.0425368 0.0392872 0.0402821 0.0409921 0.0414181 0.0415601 0.0414181 0.0409921 0.0402821 0.0392872 0.0409032 0.0418973 0.0426074 0.0430334 0.0431754 0.0430334 0.0426074 0.0418973 0.0409032 -0.017144 -0.0160025 -0.0151876 -0.0146986 -0.0145356 -0.0146986 -0.0151876 -0.0160025 -0.017144 -0.0187176 -0.0175765 -0.0167616 -0.0162725 -0.0161095 -0.0162725 -0.0167616 -0.0175765 -0.0187176 -0.0179392 -0.0167984 -0.0159833 -0.0154943 -0.0153313 -0.0154943 -0.0159833 -0.0167984 -0.0179392 -0.0359476 -0.0347778 -0.0339423 -0.033441 -0.0332739 -0.033441 -0.0339423 -0.0347778 -0.0359476 -0.0358134 -0.0346432 -0.0338078 -0.0333064 -0.0331393 -0.0333064 -0.0338078 -0.0346432 -0.0358134 -0.0358889 -0.0347193 -0.0338837 -0.0333824 -0.0332153 -0.0333824 -0.0338837 -0.0347193 -0.0358889 0.0525766 0.0536359 0.0543917 0.0548453 0.0549965 0.0548453 0.0543917 0.0536359 0.0525766 0.0560953 0.0571534 0.0579094 0.058363 0.0585142 0.058363 0.0579094 0.0571534 0.0560953 0.0543274 0.0553857 0.0561417 0.0565953 0.0567465 0.0565953 0.0561417 0.0553857 0.0543274 0.0299325 0.0229204 0.0162919 0.0100466 0.00418459 -0.00129426 -0.00638988 -0.0111023 -0.0154312 0.0306797 0.0237165 0.0171252 0.0109055 0.00505744 -0.00041898 -0.00552378 -0.0102569 -0.0146183 0.0303144 0.023327 0.0167171 0.0104846 0.00462956 -0.000848081 -0.00594827 -0.0106711 -0.0150163 0.0306797 0.0237165 0.0171252 0.0109055 0.00505744 -0.00041898 -0.00552378 -0.0102569 -0.0146183 0.0299325 0.0229204 0.0162919 0.0100466 0.00418459 -0.00129426 -0.00638988 -0.0111023 -0.0154312 0.0303144 0.023327 0.0167171 0.0104846 0.00462956 -0.000848081 -0.00594827 -0.0106711 -0.0150163 -0.0244614 -0.0275784 -0.0302984 -0.0326215 -0.0345479 -0.0360773 -0.03721 -0.0379458 -0.0382846 -0.0236676 -0.026761 -0.029464 -0.0317764 -0.0336984 -0.0352299 -0.0363709 -0.0371214 -0.0374814 -0.0240558 -0.0271613 -0.0298726 -0.0321904 -0.0341146 -0.0356451 -0.0367819 -0.0375251 -0.0378743 -0.0236676 -0.026761 -0.029464 -0.0317764 -0.0336984 -0.0352299 -0.0363709 -0.0371214 -0.0374814 -0.0244614 -0.0275784 -0.0302984 -0.0326215 -0.0345479 -0.0360773 -0.03721 -0.0379458 -0.0382846 -0.0240558 -0.0271613 -0.0298726 -0.0321904 -0.0341146 -0.0356451 -0.0367819 -0.0375251 -0.0378743 -0.0364821 -0.0332659 -0.0284356 -0.021994 -0.0139405 -0.00427514 0.00700212 0.0198907 0.0343934 -0.0356686 -0.0324288 -0.0275834 -0.021135 -0.0130831 -0.00342792 0.00783081 0.0206924 0.0351598 -0.0360666 -0.032839 -0.0280009 -0.021556 -0.0135032 -0.00384301 0.00742505 0.0203 0.0347852 -0.0356686 -0.0324288 -0.0275834 -0.021135 -0.0130831 -0.00342792 0.00783081 0.0206924 0.0351598 -0.0364821 -0.0332659 -0.0284356 -0.021994 -0.0139405 -0.00427514 0.00700212 0.0198907 0.0343934 -0.0360666 -0.032839 -0.0280009 -0.021556 -0.0135032 -0.00384301 0.00742505 0.0203 0.0347852 
</DataArray>
<DataArray Name="Warping_Y" format="ascii" type="Float64">
0.0409516 0.0402587 0.0406035 0.0370414 0.0386496 0.0376586 0.0373526 0.0393088 0.0389792 -0.0376586 -0.0370414 -0.0373526 -0.0402587 -0.0386496 -0.0409516 -0.0406035 -0.0393088 -0.0389792 0.020063 0.0192934 0.0196776 0.0177498 0.0185207 0.018458 0.0181037 0.0192613 0.0188904 -0.018458 -0.0177498 -0.0181037 -0.0192934 -0.0185207 -0.020063 -0.0196776 -0.0192613 -0.0188904 -0.00128983 -0.00206231 -0.00167962 -0.00191123 -0.00198735 -0.00118513 -0.00154654 -0.00123669 -0.00161224 0.00118513 0.00191123 0.00154654 0.00206231 0.00198735 0.00128983 0.00167962 0.00123669 0.00161224 -0.0436201 -0.0443373 -0.0439731 -0.0407762 -0.0425603 -0.0401192 -0.0404516 -0.0418691 -0.0422141 0.0401192 0.0407762 0.0404516 0.0443373 0.0425603 0.0436201 0.0439731 0.0418691 0.0422141 0.0301275 0.0225953 0.0150637 0.0075318 -6.72222e-13 -0.0075318 -0.0150637 -0.0225953 -0.0301275 0.0296335 0.0222249 0.0148167 0.00740831 -6.74625e-13 -0.00740831 -0.0148167 -0.0222249 -0.0296335 0.0298797 0.0224104 0.0149401 0.00747008 -6.73422e-13 -0.00747008 -0.0149401 -0.0224104 -0.0298797 0.0147668 0.011075 0.00738335 0.00369168 3.40179e-13 -0.00369168 -0.00738335 -0.011075 -0.0147668 0.0141997 0.0106498 0.00709987 0.00354994 3.36831e-13 -0.00354994 -0.00709987 -0.0106498 -0.0141997 0.0144833 0.0108624 0.00724162 0.00362081 3.38503e-13 -0.00362081 -0.00724162 -0.0108624 -0.0144833 -0.000947358 -0.000710751 -0.00047377 -0.000236899 5.27178e-13 0.000236899 0.00047377 0.000710751 0.000947358 -0.0015287 -0.00114664 -0.000764392 -0.000382205 5.41148e-13 0.000382205 0.000764392 0.00114664 0.0015287 -0.0012385 -0.000928568 -0.000619115 -0.000309544 5.34161e-13 0.000309544 0.000619115 0.000928568 0.0012385 -0.0320962 -0.0240718 -0.016048 -0.00802397 -5.03582e-13 0.00802397 0.016048 0.0240718 0.0320962 -0.0326222 -0.0244662 -0.016311 -0.00815545 -4.94354e-13 0.00815545 0.016311 0.0244662 0.0326222 -0.0323581 -0.0242694 -0.0161794 -0.00808973 -4.98969e-13 0.00808973 0.0161794 0.0242694 0.0323581 -0.0384866 -0.0365904 -0.0345921 -0.0325204 -0.030402 -0.0282644 -0.0261348 -0.0240401 -0.0220088 -0.0354338 -0.0336971 -0.0318597 -0.0299485 -0.0279908 -0.0260138 -0.0240448 -0.0221109 -0.0202392 -0.0369613 -0.0351442 -0.0332263 -0.0312347 -0.0291965 -0.0271391 -0.0250896 -0.0230752 -0.0211232 0.0354338 0.0336971 0.0318597 0.0299485 0.0279908 0.0260138 0.0240448 0.0221109 0.0202392 0.0384866 0.0365904 0.0345921 0.0325204 0.030402 0.0282644 0.0261348 0.0240401 0.0220088 0.0369613 0.0351442 0.0332263 0.0312347 0.0291965 0.0271391 0.0250896 0.0230752 0.0211232 -0.0173362 -0.0153196 -0.0132534 -0.0111541 -0.00903681 -0.00691668 -0.00480906 -0.00272888 -0.000692764 -0.0159613 -0.0141076 -0.0122057 -0.0102704 -0.0083171 -0.006361 -0.00441735 -0.00250147 -0.000628131 -0.0166494 -0.0147138 -0.0127297 -0.0107124 -0.00867697 -0.00663878 -0.00461304 -0.00261502 -0.000659822 0.0159613 0.0141076 0.0122057 0.0102704 0.0083171 0.006361 0.00441735 0.00250147 0.000628131 0.0173362 0.0153196 0.0132534 0.0111541 0.00903681 0.00691668 0.00480906 0.00272888 0.000692764 0.0166494 0.0147138 0.0127297 0.0107124 0.00867697 0.00663878 0.00461304 0.00261502 0.000659822 0.00611161 0.0102808 0.0145477 0.0188668 0.0231984 0.0275014 0.0317348 0.0358588 0.0398281 0.00560696 0.00945025 0.0133843 0.0173723 0.0213723 0.0253438 0.029246 0.0330372 0.0366805 0.00585889 0.00986548 0.0139659 0.0181195 0.0222854 0.0264227 0.0304906 0.0344482 0.0382547 -0.00560696 -0.00945025 -0.0133843 -0.0173723 -0.0213723 -0.0253438 -0.029246 -0.0330372 -0.0366805 -0.00611161 -0.0102808 -0.0145477 -0.0188668 -0.0231984 -0.0275014 -0.0317348 -0.0358588 -0.0398281 -0.00585889 -0.00986548 -0.0139659 -0.0181195 -0.0222854 -0.0264227 -0.0304906 -0.0344482 -0.0382547 
</DataArray>
<DataArray Name="Warping_Z" format="ascii" type="Float64">
0 0 0 0 0 0 0 0 0 0 0 0 0 0 0 0 0 0 0 0 0 0 0 0 0 0 0 0 0 0 0 0 0 0 0 0 0 0 0 0 0 0 0 0 0 0 0 0 0 0 0 0 0 0 0 0 0 0 0 0 0 0 0 0 0 0 0 0 0 0 0 0 0 0 0 0 0 0 0 0 0 0 0 0 0 0 0 0 0 0 0 0 0 0 0 0 0 0 0 0 0 0 0 0 0 0 0 0 0 0 0 0 0 0 0 0 0 0 0 0 0 0 0 0 0 0 0 0 0 0 0 0 0 0 0 0 0 0 0 0 0 0 0 0 0 0 0 0 0 0 0 0 0 0 0 0 0 0 0 0 0 0 0 0 0 0 0 0 0 0 0 0 0 0 0 0 0 0 0 0 0 0 0 0 0 0 0 0 0 0 0 0 0 0 0 0 0 0 0 0 0 0 0 0 0 0 0 0 0 0 0 0 0 0 0 0 0 0 0 0 0 0 0 0 0 0 0 0 0 0 0 0 0 0 0 0 0 0 0 0 0 0 0 0 0 0 0 0 0 0 0 0 0 0 0 0 0 0 0 0 0 0 0 0 0 0 0 0 0 0 0 0 0 0 0 0 0 0 0 0 0 0 0 0 0 0 0 0 0 0 0 0 0 0 0 0 0 0 0 0 0 0 0 0 0 0 0 0 0 0 0 0 0 0 0 0 0 0 0 0 0 0 0 0 0 0 0 0 0 0 0 0 0 0 0 0 0 0 0 0 0 0 
</DataArray>
</PointData>
<CellData>
<DataArray Name="MaterialId" format="ascii" type="Float64">
1 1 1 1 1 1 1 1 1 1 1 1 1 1 1 1 1 1 1 1 1 1 1 1 1 1 1 1 1 1 1 1 1 1 1 1 1 1 1 1 1 1 1 1 1 1 1 1 1 1 1 1 1 1 1 1 1 1 1 1 1 1 1 1 1 1 1 1 1 1 1 1 1 1 1 1 1 1 1 1 1 1 1 1 1 1 1 1 1 1 1 1 1 1 1 1 1 1 1 1 1 1 1 1 1 1 1 1 1 1 1 1 1 1 1 1 1 1 1 1 1 1 1 1 1 1 1 1 1 1 1 1 1 1 1 1 1 1 1 1 1 1 1 1 1 1 1 1 1 1 1 1 1 1 1 1 1 1 1 1 1 1 1 1 1 1 1 1 1 1 1 1 1 1 1 1 1 1 1 1 1 1 1 1 1 1 1 1 1 1 1 1 1 1 1 1 1 1 1 1 1 1 1 1 1 1 1 1 1 1 1 1 1 1 1 1 1 1 1 1 1 1 1 1 1 1 1 1 1 1 1 1 
</DataArray>
<DataArray Name="FiberAngle" format="ascii" type="Float64">
0 0 0 0 0 0 0 0 0 0 0 0 0 0 0 0 0 0 0 0 0 0 0 0 0 0 0 0 0 0 0 0 0 0 0 0 0 0 0 0 0 0 0 0 0 0 0 0 0 0 0 0 0 0 0 0 0 0 0 0 0 0 0 0 0 0 0 0 0 0 0 0 0 0 0 0 0 0 0 0 0 0 0 0 0 0 0 0 0 0 0 0 0 0 0 0 0 0 0 0 0 0 0 0 0 0 0 0 0 0 0 0 0 0 0 0 0 0 0 0 0 0 0 0 0 0 0 0 0 0 0 0 0 0 0 0 0 0 0 0 0 0 0 0 0 0 0 0 0 0 0 0 0 0 0 0 0 0 0 0 0 0 0 0 0 0 0 0 0 0 0 0 0 0 0 0 0 0 0 0 0 0 0 0 0 0 0 0 0 0 0 0 0 0 0 0 0 0 0 0 0 0 0 0 0 0 0 0 0 0 0 0 0 0 0 0 0 0 0 0 0 0 0 0 0 0 0 0 0 0 0 0 
</DataArray>
<DataArray Name="Strain_11" format="ascii" type="Float64">
-0.326774 -0.324256 -0.326463 -0.322836 -0.326463 -0.322836 -0.326774 -0.324256 -0.158406 -0.15597 -0.159387 -0.155478 -0.159387 -0.155478 -0.158406 -0.15597 0.0120047 0.0145592 0.0114793 0.0156252 0.0114793 0.0156252 0.0120047 0.0145592 0.351102 0.353697 0.349574 0.353418 0.349574 0.353418 0.351102 0.353697 -0.322786 -0.323116 -0.323043 -0.323058 -0.323055 -0.323055 -0.323058 -0.323043 -0.323116 -0.322786 -0.326527 -0.326679 -0.326653 -0.326656 -0.326656 -0.326656 -0.326656 -0.326653 -0.326679 -0.326527 -0.155601 -0.155656 -0.15564 -0.155645 -0.155643 -0.155643 -0.155645 -0.15564 -0.155656 -0.155601 -0.159287 -0.159109 -0.159153 -0.159142 -0.159145 -0.159145 -0.159142 -0.159153 -0.159109 -0.159287 0.0153731 0.0151591 0.0152076 0.0151969 0.0151991 0.0151991 0.0151969 0.0152076 0.0151591 0.0153731 0.0117012 0.0117268 0.011713 0.0117184 0.0117167 0.0117167 0.0117184 0.011713 0.0117268 0.0117012 0.353402 0.353567 0.353542 0.353544 0.353544 0.353544 0.353544 0.353542 0.353567 0.353402 0.349678 0.350053 0.349974 0.34999 0.349987 0.349987 0.34999 0.349974 0.350053 0.349678 -0.312731 -0.296821 -0.280876 -0.26494 -0.249003 -0.233065 -0.217127 -0.201192 -0.185247 -0.169339 -0.314003 -0.297862 -0.281666 -0.265485 -0.2493 -0.233117 -0.216932 -0.200751 -0.184555 -0.168417 -0.314003 -0.297862 -0.281666 -0.265485 -0.2493 -0.233117 -0.216932 -0.200751 -0.184555 -0.168417 -0.312731 -0.296821 -0.280876 -0.26494 -0.249003 -0.233065 -0.217127 -0.201192 -0.185247 -0.169339 -0.145441 -0.129143 -0.112798 -0.0964639 -0.0801272 -0.0637911 -0.0474543 -0.0311204 -0.0147738 0.00151826 -0.14605 -0.129634 -0.113152 -0.0966868 -0.0802175 -0.0637492 -0.0472799 -0.0308145 -0.0143321 0.00207912 -0.14605 -0.129634 -0.113152 -0.0966868 -0.0802175 -0.0637492 -0.0472799 -0.0308145 -0.0143321 0.00207912 -0.145441 -0.129143 -0.112798 -0.0964639 -0.0801272 -0.0637911 -0.0474543 -0.0311204 -0.0147738 0.00151826 0.0337779 0.0666753 0.09983 0.13292 0.166027 0.199128 0.232235 0.265325 0.29848 0.33138 0.0334503 0.0664316 0.0996739 0.132851 0.166044 0.199233 0.232426 0.265603 0.298845 0.331829 0.0334503 0.0664316 0.0996739 0.132851 0.166044 0.199233 0.232426 0.265603 0.298845 0.331829 0.0337779 0.0666753 0.09983 0.13292 0.166027 0.199128 0.232235 0.265325 0.29848 0.33138 
</DataArray>
<DataArray Name="Strain_22" format="ascii" type="Float64">
-0.326711 -0.323343 -0.327681 -0.323473 -0.327681 -0.323473 -0.326711 -0.323343 -0.158896 -0.155991 -0.158994 -0.155768 -0.158994 -0.155768 -0.158896 -0.155991 0.0120526 0.0142345 0.0117259 0.0141815 0.0117259 0.0141815 0.0120526 0.0142345 0.350991 0.353592 0.351239 0.354657 0.351239 0.354657 0.350991 0.353592 -0.323498 -0.323432 -0.323445 -0.323443 -0.323443 -0.323443 -0.323443 -0.323445 -0.323432 -0.323498 -0.326173 -0.326119 -0.32613 -0.326128 -0.326128 -0.326128 -0.326128 -0.32613 -0.326119 -0.326173 -0.155879 -0.155887 -0.155885 -0.155886 -0.155886 -0.155886 -0.155886 -0.155885 -0.155887 -0.155879 -0.158949 -0.158971 -0.158966 -0.158967 -0.158967 -0.158967 -0.158967 -0.158966 -0.158971 -0.158949 0.0150123 0.0150433 0.015037 0.0150382 0.015038 0.015038 0.0150382 0.015037 0.0150433 0.0150123 0.0118654 0.0118814 0.011879 0.0118792 0.0118792 0.0118792 0.0118792 0.011879 0.0118814 0.0118654 0.353207 0.353146 0.353158 0.353156 0.353156 0.353156 0.353156 0.353158 0.353146 0.353207 0.350359 0.350285 0.3503 0.350297 0.350298 0.350298 0.350297 0.3503 0.350285 0.350359 -0.313562 -0.297459 -0.281373 -0.26528 -0.249189 -0.233097 -0.217006 -0.200914 -0.184826 -0.168716 -0.313444 -0.297147 -0.281189 -0.26514 -0.249116 -0.233083 -0.217058 -0.20101 -0.185052 -0.168743 -0.313444 -0.297147 -0.281189 -0.26514 -0.249116 -0.233083 -0.217058 -0.20101 -0.185052 -0.168743 -0.313562 -0.297459 -0.281373 -0.26528 -0.249189 -0.233097 -0.217006 -0.200914 -0.184826 -0.168716 -0.14591 -0.12943 -0.113024 -0.0966026 -0.0801837 -0.0637648 -0.0473462 -0.0309238 -0.0145243 0.00198702 -0.145947 -0.129258 -0.112948 -0.0965434 -0.0801622 -0.0637743 -0.047393 -0.0309885 -0.0146799 0.00202 -0.145947 -0.129258 -0.112948 -0.0965434 -0.0801622 -0.0637743 -0.047393 -0.0309885 -0.0146799 0.00202 -0.14591 -0.12943 -0.113024 -0.0966026 -0.0801837 -0.0637648 -0.0473462 -0.0309238 -0.0145243 0.00198702 0.0328044 0.0667153 0.0996848 0.132889 0.166034 0.199197 0.232343 0.265546 0.298517 0.332418 0.0327678 0.0668078 0.0997155 0.132908 0.166029 0.199172 0.232293 0.265485 0.298395 0.332424 0.0327678 0.0668078 0.0997155 0.132908 0.166029 0.199172 0.232293 0.265485 0.298395 0.332424 0.0328044 0.0667153 0.0996848 0.132889 0.166034 0.199197 0.232343 0.265546 0.298517 0.332418 
</DataArray>
<DataArray Name="Strain_12" format="ascii" type="Float64">
0.000938967 0.00241715 0.00206729 0.0021414 -0.00206729 -0.0021414 -0.000938967 -0.00241715 0.0023532 0.00228878 0.00243727 0.00240413 -0.00243727 -0.00240413 -0.0023532 -0.00228878 0.00207768 0.00317488 0.0024235 0.00233867 -0.0024235 -0.00233867 -0.00207768 -0.00317488 0.00327183 0.000789053 0.00222651 0.00230998 -0.00222651 -0.00230998 -0.00327183 -0.000789053 -0.000240158 7.19073e-05 -2.00026e-05 5.31778e-06 -1.62296e-06 1.62296e-06 -5.31778e-06 2.00026e-05 -7.19073e-05 0.000240158 0.000240158 -7.19073e-05 2.00026e-05 -5.31778e-06 1.62296e-06 -1.62296e-06 5.31778e-06 -2.00026e-05 7.19073e-05 -0.000240158 2.51166e-05 -1.0003e-05 3.28194e-06 -9.85116e-07 3.35695e-07 -3.35695e-07 9.85116e-07 -3.28194e-06 1.0003e-05 -2.51166e-05 -2.51166e-05 1.0003e-05 -3.28194e-06 9.85116e-07 -3.35694e-07 3.35695e-07 -9.85116e-07 3.28194e-06 -1.0003e-05 2.51166e-05 -0.000141064 3.9018e-05 -1.02063e-05 2.56742e-06 -7.38133e-07 7.38133e-07 -2.56742e-06 1.02063e-05 -3.9018e-05 0.000141064 0.000141064 -3.9018e-05 1.02063e-05 -2.56742e-06 7.38133e-07 -7.38133e-07 2.56742e-06 -1.02063e-05 3.9018e-05 -0.000141064 0.000346822 -9.85351e-05 2.63418e-05 -6.76231e-06 1.98889e-06 -1.98889e-06 6.76231e-06 -2.63418e-05 9.85351e-05 -0.000346822 -0.000346822 9.85351e-05 -2.63418e-05 6.76231e-06 -1.98889e-06 1.98889e-06 -6.76231e-06 2.63418e-05 -9.85351e-05 0.000346822 0.000245558 0.000125894 0.000141917 0.000141398 0.000140837 0.000140619 0.000142307 0.000137774 0.000143898 0.000170927 3.63926e-05 0.000156056 0.000140033 0.000140552 0.000141114 0.000141331 0.000139644 0.000144176 0.000138053 0.000111023 -3.63926e-05 -0.000156056 -0.000140033 -0.000140552 -0.000141114 -0.000141331 -0.000139644 -0.000144176 -0.000138053 -0.000111023 -0.000245558 -0.000125894 -0.000141917 -0.000141398 -0.000140837 -0.000140619 -0.000142307 -0.000137774 -0.000143898 -0.000170927 5.53625e-05 9.3022e-05 6.95201e-05 7.84975e-05 7.58398e-05 7.56801e-05 7.90305e-05 6.74685e-05 0.000100638 2.86543e-05 9.72307e-05 5.95713e-05 8.30731e-05 7.40958e-05 7.67535e-05 7.69131e-05 7.35627e-05 8.51248e-05 5.19557e-05 0.000123939 -9.72307e-05 -5.95713e-05 -8.30731e-05 -7.40958e-05 -7.67535e-05 -7.69131e-05 -7.35627e-05 -8.51248e-05 -5.19557e-05 -0.000123939 -5.53625e-05 -9.3022e-05 -6.95201e-05 -7.84975e-05 -7.58398e-05 -7.56801e-05 -7.90305e-05 -6.74685e-05 -0.000100638 -2.86543e-05 4.38161e-05 0.000112562 6.22423e-05 8.32488e-05 7.64149e-05 7.66794e-05 8.24211e-05 6.5362e-05 0.00010075 8.81132e-05 0.00011169 4.29441e-05 9.32643e-05 7.22578e-05 7.90917e-05 7.88272e-05 7.30855e-05 9.01446e-05 5.47562e-05 6.73934e-05 -0.00011169 -4.29441e-05 -9.32643e-05 -7.22578e-05 -7.90917e-05 -7.88272e-05 -7.30855e-05 -9.01446e-05 -5.47562e-05 -6.73934e-05 -4.38161e-05 -0.000112562 -6.22423e-05 -8.32488e-05 -7.64149e-05 -7.66794e-05 -8.24211e-05 -6.5362e-05 -0.00010075 -8.81132e-05 
</DataArray>
<DataArray Name="Strain_13" format="ascii" type="Float64">
0 0 0 0 0 0 0 0 0 0 0 0 0 0 0 0 0 0 0 0 0 0 0 0 0 0 0 0 0 0 0 0 0 0 0 0 0 0 0 0 0 0 0 0 0 0 0 0 0 0 0 0 0 0 0 0 0 0 0 0 0 0 0 0 0 0 0 0 0 0 0 0 0 0 0 0 0 0 0 0 0 0 0 0 0 0 0 0 0 0 0 0 0 0 0 0 0 0 0 0 0 0 0 0 0 0 0 0 0 0 0 0 0 0 0 0 0 0 0 0 0 0 0 0 0 0 0 0 0 0 0 0 0 0 0 0 0 0 0 0 0 0 0 0 0 0 0 0 0 0 0 0 0 0 0 0 0 0 0 0 0 0 0 0 0 0 0 0 0 0 0 0 0 0 0 0 0 0 0 0 0 0 0 0 0 0 0 0 0 0 0 0 0 0 0 0 0 0 0 0 0 0 0 0 0 0 0 0 0 0 0 0 0 0 0 0 0 0 0 0 0 0 0 0 0 0 0 0 0 0 0 0 
</DataArray>
<DataArray Name="Strain_23" format="ascii" type="Float64">
0 0 0 0 0 0 0 0 0 0 0 0 0 0 0 0 0 0 0 0 0 0 0 0 0 0 0 0 0 0 0 0 0 0 0 0 0 0 0 0 0 0 0 0 0 0 0 0 0 0 0 0 0 0 0 0 0 0 0 0 0 0 0 0 0 0 0 0 0 0 0 0 0 0 0 0 0 0 0 0 0 0 0 0 0 0 0 0 0 0 0 0 0 0 0 0 0 0 0 0 0 0 0 0 0 0 0 0 0 0 0 0 0 0 0 0 0 0 0 0 0 0 0 0 0 0 0 0 0 0 0 0 0 0 0 0 0 0 0 0 0 0 0 0 0 0 0 0 0 0 0 0 0 0 0 0 0 0 0 0 0 0 0 0 0 0 0 0 0 0 0 0 0 0 0 0 0 0 0 0 0 0 0 0 0 0 0 0 0 0 0 0 0 0 0 0 0 0 0 0 0 0 0 0 0 0 0 0 0 0 0 0 0 0 0 0 0 0 0 0 0 0 0 0 0 0 0 0 0 0 0 0 
</DataArray>
<DataArray Name="Strain_33" format="ascii" type="Float64">
0.4975 0.4925 0.4975 0.4925 0.4975 0.4925 0.4975 0.4925 0.2525 0.2475 0.2525 0.2475 0.2525 0.2475 0.2525 0.2475 0.0025 -0.0025 0.0025 -0.0025 0.0025 -0.0025 0.0025 -0.0025 -0.4925 -0.4975 -0.4925 -0.4975 -0.4925 -0.4975 -0.4925 -0.4975 0.4925 0.4925 0.4925 0.4925 0.4925 0.4925 0.4925 0.4925 0.4925 0.4925 0.4975 0.4975 0.4975 0.4975 0.4975 0.4975 0.4975 0.4975 0.4975 0.4975 0.2475 0.2475 0.2475 0.2475 0.2475 0.2475 0.2475 0.2475 0.2475 0.2475 0.2525 0.2525 0.2525 0.2525 0.2525 0.2525 0.2525 0.2525 0.2525 0.2525 -0.0025 -0.0025 -0.0025 -0.0025 -0.0025 -0.0025 -0.0025 -0.0025 -0.0025 -0.0025 0.0025 0.0025 0.0025 0.0025 0.0025 0.0025 0.0025 0.0025 0.0025 0.0025 -0.4975 -0.4975 -0.4975 -0.4975 -0.4975 -0.4975 -0.4975 -0.4975 -0.4975 -0.4975 -0.4925 -0.4925 -0.4925 -0.4925 -0.4925 -0.4925 -0.4925 -0.4925 -0.4925 -0.4925 0.47825 0.45475 0.43125 0.40775 0.38425 0.36075 0.33725 0.31375 0.29025 0.26675 0.47825 0.45475 0.43125 0.40775 0.38425 0.36075 0.33725 0.31375 0.29025 0.26675 0.47825 0.45475 0.43125 0.40775 0.38425 0.36075 0.33725 0.31375 0.29025 0.26675 0.47825 0.45475 0.43125 0.40775 0.38425 0.36075 0.33725 0.31375 0.29025 0.26675 0.233 0.209 0.185 0.161 0.137 0.113 0.089 0.065 0.041 0.017 0.233 0.209 0.185 0.161 0.137 0.113 0.089 0.065 0.041 0.017 0.233 0.209 0.185 0.161 0.137 0.113 0.089 0.065 0.041 0.017 0.233 0.209 0.185 0.161 0.137 0.113 0.089 0.065 0.041 0.017 -0.02925 -0.07775 -0.12625 -0.17475 -0.22325 -0.27175 -0.32025 -0.36875 -0.41725 -0.46575 -0.02925 -0.07775 -0.12625 -0.17475 -0.22325 -0.27175 -0.32025 -0.36875 -0.41725 -0.46575 -0.02925 -0.07775 -0.12625 -0.17475 -0.22325 -0.27175 -0.32025 -0.36875 -0.41725 -0.46575 -0.02925 -0.07775 -0.12625 -0.17475 -0.22325 -0.27175 -0.32025 -0.36875 -0.41725 -0.46575 
</DataArray>
<DataArray Name="Stress_11" format="ascii" type="Float64">
-31.5641 -31.3297 -31.5564 -31.1754 -31.5564 -31.1754 -31.5641 -31.3297 -15.0006 -14.788 -15.1122 -14.7272 -15.1122 -14.7272 -15.0006 -14.788 1.7381 1.94365 1.67064 2.06062 1.67064 2.06062 1.7381 1.94365 35.0805 35.3022 34.9177 35.3008 34.9177 35.3008 35.0805 35.3022 -31.1706 -31.2054 -31.1977 -31.1993 -31.199 -31.199 -31.1993 -31.1977 -31.2054 -31.1706 -31.5217 -31.5371 -31.5345 -31.5348 -31.5348 -31.5348 -31.5348 -31.5345 -31.5371 -31.5217 -14.744 -14.7503 -14.7485 -14.749 -14.7489 -14.7489 -14.749 -14.7485 -14.7503 -14.744 -15.0999 -15.0808 -15.0855 -15.0844 -15.0846 -15.0846 -15.0844 -15.0855 -15.0808 -15.0999 2.05568 2.03277 2.03798 2.03682 2.03707 2.03707 2.03682 2.03798 2.03277 2.05568 1.69917 1.70246 1.70086 1.70147 1.70128 1.70128 1.70147 1.70086 1.70246 1.69917 35.2588 35.2754 35.2729 35.2731 35.2732 35.2732 35.2731 35.2729 35.2754 35.2588 34.9048 34.9444 34.936 34.9377 34.9374 34.9374 34.9377 34.936 34.9444 34.9048 -30.1733 -28.6109 -27.0452 -25.4803 -23.9152 -22.3502 -20.7851 -19.2203 -17.6545 -16.0922 -30.3113 -28.7179 -27.1279 -25.537 -23.9463 -22.3556 -20.7649 -19.174 -17.584 -15.9906 -30.3113 -28.7179 -27.1279 -25.537 -23.9463 -22.3556 -20.7649 -19.174 -17.584 -15.9906 -30.1733 -28.6109 -27.0452 -25.4803 -23.9152 -22.3502 -20.7851 -19.2203 -17.6545 -16.0922 -13.741 -12.139 -10.5338 -8.92939 -7.32479 -5.72025 -4.11565 -2.51126 -0.906094 0.696113 -13.8096 -12.1887 -10.571 -8.95252 -7.33423 -5.71587 -4.09757 -2.47907 -0.861341 0.759347 -13.8096 -12.1887 -10.571 -8.95252 -7.33423 -5.71587 -4.09757 -2.47907 -0.861341 0.759347 -13.741 -12.139 -10.5338 -8.92939 -7.32479 -5.72025 -4.11565 -2.51126 -0.906094 0.696113 3.85183 7.10185 10.3543 13.6061 16.8581 20.11 23.362 26.6138 29.8663 33.1163 3.81441 7.07734 10.3378 13.5989 16.8599 20.1209 23.3818 26.643 29.9034 33.1664 3.81441 7.07734 10.3378 13.5989 16.8599 20.1209 23.3818 26.643 29.9034 33.1664 3.85183 7.10185 10.3543 13.6061 16.8581 20.11 23.362 26.6138 29.8663 33.1163 
</DataArray>
<DataArray Name="Stress_22" format="ascii" type="Float64">
-31.5588 -31.2535 -31.658 -31.2285 -31.658 -31.2285 -31.5588 -31.2535 -15.0414 -14.7899 -15.0795 -14.7514 -15.0795 -14.7514 -15.0414 -14.7899 1.74209 1.91659 1.69119 1.94031 1.69119 1.94031 1.74209 1.91659 35.0712 35.2935 35.0564 35.404 35.0564 35.404 35.0712 35.2935 -31.2299 -31.2317 -31.2313 -31.2314 -31.2313 -31.2313 -31.2314 -31.2313 -31.2317 -31.2299 -31.4922 -31.4904 -31.4909 -31.4907 -31.4908 -31.4908 -31.4907 -31.4909 -31.4904 -31.4922 -14.7671 -14.7696 -14.7689 -14.7691 -14.7691 -14.7691 -14.7691 -14.7689 -14.7696 -14.7671 -15.0717 -15.0693 -15.0699 -15.0698 -15.0698 -15.0698 -15.0698 -15.0699 -15.0693 -15.0717 2.02561 2.02312 2.02377 2.0236 2.02364 2.02364 2.0236 2.02377 2.02312 2.02561 1.71285 1.71534 1.71469 1.71486 1.71482 1.71482 1.71486 1.71469 1.71534 1.71285 35.2425 35.2403 35.2409 35.2407 35.2408 35.2408 35.2407 35.2409 35.2403 35.2425 34.9616 34.9637 34.9632 34.9633 34.9633 34.9633 34.9633 34.9632 34.9637 34.9616 -30.2425 -28.6641 -27.0866 -25.5086 -23.9308 -22.3529 -20.775 -19.1971 -17.6195 -16.0404 -30.2647 -28.6583 -27.0881 -25.5082 -23.9309 -22.3528 -20.7754 -19.1956 -17.6254 -16.0177 -30.2647 -28.6583 -27.0881 -25.5082 -23.9309 -22.3528 -20.7754 -19.1956 -17.6254 -16.0177 -30.2425 -28.6641 -27.0866 -25.5086 -23.9308 -22.3529 -20.775 -19.1971 -17.6195 -16.0404 -13.78 -12.1629 -10.5526 -8.94095 -7.3295 -5.71807 -4.10664 -2.49488 -0.88531 0.735177 -13.8011 -12.1574 -10.554 -8.94057 -7.32962 -5.71795 -4.10699 -2.49357 -0.890327 0.75442 -13.8011 -12.1574 -10.554 -8.94057 -7.32962 -5.71795 -4.10699 -2.49357 -0.890327 0.75442 -13.78 -12.1629 -10.5526 -8.94095 -7.3295 -5.71807 -4.10664 -2.49488 -0.88531 0.735177 3.77071 7.10518 10.3422 13.6035 16.8587 20.1157 23.371 26.6322 29.8694 33.2028 3.75754 7.10868 10.3413 13.6037 16.8586 20.1158 23.3707 26.6332 29.8659 33.216 3.75754 7.10868 10.3413 13.6037 16.8586 20.1158 23.3707 26.6332 29.8659 33.216 3.77071 7.10518 10.3422 13.6035 16.8587 20.1157 23.371 26.6322 29.8694 33.2028 
</DataArray>
<DataArray Name="Stress_12" format="ascii" type="Float64">
0.039124 0.100715 0.0861376 0.0892256 -0.0861376 -0.0892256 -0.039124 -0.100715 0.0980509 0.0953664 0.101554 0.100173 -0.101554 -0.100173 -0.0980509 -0.0953664 0.0865707 0.132288 0.10098 0.0974453 -0.10098 -0.0974453 -0.0865707 -0.132288 0.136327 0.0328775 0.0927722 0.0962501 -0.0927722 -0.0962501 -0.136327 -0.0328775 -0.0100067 0.00299616 -0.000833447 0.000221576 -6.76239e-05 6.76239e-05 -0.000221576 0.000833447 -0.00299616 0.0100067 0.0100067 -0.00299616 0.000833447 -0.000221576 6.76239e-05 -6.76239e-05 0.000221576 -0.000833447 0.00299616 -0.0100067 0.00104653 -0.000416797 0.000136749 -4.10468e-05 1.39874e-05 -1.39874e-05 4.10468e-05 -0.000136749 0.000416797 -0.00104653 -0.00104653 0.000416797 -0.000136749 4.10468e-05 -1.39874e-05 1.39874e-05 -4.10468e-05 0.000136749 -0.000416797 0.00104653 -0.0058777 0.00162576 -0.000425265 0.000106977 -3.07558e-05 3.07558e-05 -0.000106977 0.000425265 -0.00162576 0.0058777 0.0058777 -0.00162576 0.000425265 -0.000106977 3.07558e-05 -3.07558e-05 0.000106977 -0.000425265 0.00162576 -0.0058777 0.014451 -0.00410566 0.00109758 -0.000281765 8.2871e-05 -8.2871e-05 0.000281765 -0.00109758 0.00410566 -0.014451 -0.014451 0.00410566 -0.00109758 0.000281765 -8.2871e-05 8.2871e-05 -0.000281765 0.00109758 -0.00410566 0.014451 0.0102317 0.00524562 0.00591327 0.00589164 0.00586824 0.00585917 0.00592949 0.00574063 0.00599578 0.00712203 0.00151637 0.0065024 0.00583475 0.00585639 0.00587979 0.00588886 0.00581854 0.00600739 0.00575224 0.00462599 -0.00151637 -0.0065024 -0.00583475 -0.00585639 -0.00587979 -0.00588886 -0.00581854 -0.00600739 -0.00575224 -0.00462599 -0.0102317 -0.00524562 -0.00591327 -0.00589164 -0.00586824 -0.00585917 -0.00592949 -0.00574063 -0.00599578 -0.00712203 0.00230679 0.00387595 0.0028967 0.00327075 0.00316002 0.00315336 0.00329296 0.00281121 0.00419326 0.00119394 0.00405131 0.00248216 0.00346141 0.00308735 0.00319809 0.00320474 0.00306514 0.00354689 0.00216484 0.00516416 -0.00405131 -0.00248216 -0.00346141 -0.00308735 -0.00319809 -0.00320474 -0.00306514 -0.00354689 -0.00216484 -0.00516416 -0.00230679 -0.00387595 -0.0028967 -0.00327075 -0.00316002 -0.00315336 -0.00329296 -0.00281121 -0.00419326 -0.00119394 0.00182569 0.00469014 0.00259345 0.00346873 0.00318398 0.003195 0.00343424 0.00272344 0.00419797 0.00367141 0.00465381 0.00178935 0.00388604 0.00301077 0.00329551 0.00328449 0.00304525 0.00375606 0.00228153 0.00280808 -0.00465381 -0.00178935 -0.00388604 -0.00301077 -0.00329551 -0.00328449 -0.00304525 -0.00375606 -0.00228153 -0.00280808 -0.00182569 -0.00469014 -0.00259345 -0.00346873 -0.00318398 -0.003195 -0.00343424 -0.00272344 -0.00419797 -0.00367141 
</DataArray>
<DataArray Name="Stress_13" format="ascii" type="Float64">
0 0 0 0 0 0 0 0 0 0 0 0 0 0 0 0 0 0 0 0 0 0 0 0 0 0 0 0 0 0 0 0 0 0 0 0 0 0 0 0 0 0 0 0 0 0 0 0 0 0 0 0 0 0 0 0 0 0 0 0 0 0 0 0 0 0 0 0 0 0 0 0 0 0 0 0 0 0 0 0 0 0 0 0 0 0 0 0 0 0 0 0 0 0 0 0 0 0 0 0 0 0 0 0 0 0 0 0 0 0 0 0 0 0 0 0 0 0 0 0 0 0 0 0 0 0 0 0 0 0 0 0 0 0 0 0 0 0 0 0 0 0 0 0 0 0 0 0 0 0 0 0 0 0 0 0 0 0 0 0 0 0 0 0 0 0 0 0 0 0 0 0 0 0 0 0 0 0 0 0 0 0 0 0 0 0 0 0 0 0 0 0 0 0 0 0 0 0 0 0 0 0 0 0 0 0 0 0 0 0 0 0 0 0 0 0 0 0 0 0 0 0 0 0 0 0 0 0 0 0 0 0 
</DataArray>
<DataArray Name="Stress_23" format="ascii" type="Float64">
0 0 0 0 0 0 0 0 0 0 0 0 0 0 0 0 0 0 0 0 0 0 0 0 0 0 0 0 0 0 0 0 0 0 0 0 0 0 0 0 0 0 0 0 0 0 0 0 0 0 0 0 0 0 0 0 0 0 0 0 0 0 0 0 0 0 0 0 0 0 0 0 0 0 0 0 0 0 0 0 0 0 0 0 0 0 0 0 0 0 0 0 0 0 0 0 0 0 0 0 0 0 0 0 0 0 0 0 0 0 0 0 0 0 0 0 0 0 0 0 0 0 0 0 0 0 0 0 0 0 0 0 0 0 0 0 0 0 0 0 0 0 0 0 0 0 0 0 0 0 0 0 0 0 0 0 0 0 0 0 0 0 0 0 0 0 0 0 0 0 0 0 0 0 0 0 0 0 0 0 0 0 0 0 0 0 0 0 0 0 0 0 0 0 0 0 0 0 0 0 0 0 0 0 0 0 0 0 0 0 0 0 0 0 0 0 0 0 0 0 0 0 0 0 0 0 0 0 0 0 0 0 
</DataArray>
<DataArray Name="Stress_33" format="ascii" type="Float64">
37.1254 36.7334 37.1071 36.7692 37.1071 36.7692 37.1254 36.7334 19.2416 18.8344 19.2117 18.8543 19.2117 18.8543 19.2416 18.8344 0.946038 0.522048 0.922366 0.550187 0.922366 0.550187 0.946038 0.522048 -35.2197 -35.6309 -35.2552 -35.6091 -35.2552 -35.6091 -35.2197 -35.6309 36.7699 36.7626 36.7642 36.7639 36.7639 36.7639 36.7639 36.7642 36.7626 36.7699 37.1472 37.1445 37.1449 37.1449 37.1449 37.1449 37.1449 37.1449 37.1445 37.1472 18.8478 18.846 18.8465 18.8464 18.8464 18.8464 18.8464 18.8465 18.846 18.8478 19.2157 19.22 19.2189 19.2192 19.2191 19.2191 19.2192 19.2189 19.22 19.2157 0.56626 0.561178 0.562351 0.562085 0.562142 0.562142 0.562085 0.562351 0.561178 0.56626 0.932404 0.93356 0.933111 0.933265 0.93322 0.93322 0.933265 0.933111 0.93356 0.932404 -35.6497 -35.6469 -35.6472 -35.6472 -35.6472 -35.6472 -35.6472 -35.6472 -35.6469 -35.6497 -35.2767 -35.2684 -35.2702 -35.2698 -35.2699 -35.2699 -35.2698 -35.2702 -35.2684 -35.2767 35.7418 34.02 32.2986 30.5772 28.8558 27.1344 25.413 23.6915 21.9702 20.2485 35.7098 33.9998 32.2818 30.566 28.8496 27.1333 25.4169 23.7011 21.9831 20.2733 35.7098 33.9998 32.2818 30.566 28.8496 27.1333 25.4169 23.7011 21.9831 20.2733 35.7418 34.02 32.2986 30.5772 28.8558 27.1344 25.413 23.6915 21.9702 20.2485 17.7958 16.0396 14.2827 12.5259 10.7691 9.01234 7.25554 5.49877 3.74172 1.98626 17.7779 16.0308 14.275 12.5214 10.7672 9.01324 7.25909 5.50547 3.74967 2.00275 17.7779 16.0308 14.275 12.5214 10.7672 9.01324 7.25909 5.50547 3.74967 2.00275 17.7958 16.0396 14.2827 12.5259 10.7691 9.01234 7.25554 5.49877 3.74172 1.98626 -1.40049 -4.93359 -8.4857 -12.0331 -15.5816 -19.1298 -22.6784 -26.2258 -29.7779 -33.3112 -1.41061 -4.9378 -8.48918 -12.0345 -15.5813 -19.1277 -22.6745 -26.2198 -29.7711 -33.2985 -1.41061 -4.9378 -8.48918 -12.0345 -15.5813 -19.1277 -22.6745 -26.2198 -29.7711 -33.2985 -1.40049 -4.93359 -8.4857 -12.0331 -15.5816 -19.1298 -22.6784 -26.2258 -29.7779 -33.3112 
</DataArray>
</CellData>
<Points>
<DataArray NumberOfComponents="3" format="ascii" type="Float64">