<?xml version="1.0"?>
<VTKFile byte_order="LittleEndian" type="UnstructuredGrid" version="0.1">
<UnstructuredGrid>
<Piece NumberOfCells="232" NumberOfPoints="342">
<PointData>
<DataArray Name="Warping_X" format="ascii" type="Float64">
0 0 0 0 0 0 0 0 0 0 0 0 0 0 0 0 0 0 0 0 0 0 0 0 0 0 0 0 0 0 0 0 0 0 0 0 0 0 0 0 0 0 0 0 0 0 0 0 0 0 0 0 0 0 0 0 0 0 0 0 0 0 0 0 0 0 0 0 0 0 0 0 0 0 0 0 0 0 0 -0 0 0 0 0 0 0 0 0 -0 0 0 0 0 0 0 0 0 0 0 0 0 0 0 0 0 0 0 0 0 0 0 0 0 0 0 0 0 0 0 0 0 0 0 0 0 0 0 0 0 0 0 0 0 0 0 0 0 0 0 -0 0 0 0 0 0 0 0 0 0 0 0 0 0 0 0 0 0 -0 0 0 0 0 0 0 0 0 -0 0 0 0 0 0 0 0 0 0 0 0 0 0 0 0 0 0 0 0 0 0 0 0 0 0 0 0 0 0 0 0 0 0 0 0 0 0 0 0 0 0 0 0 0 0 0 0 0 0 0 0 0 0 0 0 0 0 0 0 0 0 0 0 0 0 0 0 0 0 0 0 0 0 0 0 0 0 0 0 0 0 0 0 0 0 0 0 0 0 0 0 0 0 0 0 0 0 0 0 0 0 0 0 0 0 0 0 0 0 0 0 0 0 0 0 0 0 0 0 0 0 0 0 0 0 0 0 0 0 0 0 0 0 0 0 0 0 0 0 0 0 0 0 0 0 0 0 0 0 0 0 0 0 0 0 0 0 0 0 0 0 0 0 0 0 0 0 0 0 0 0 0 0 0 0 
</DataArray>
<DataArray Name="Warping_Y" format="ascii" type="Float64">
0 0 0 0 0 0 0 0 0 0 0 0 0 0 0 0 0 0 0 0 0 0 0 0 0 0 0 0 0 0 0 0 0 0 0 0 0 0 0 0 0 0 0 0 0 0 0 0 0 0 0 0 0 0 0 0 0 0 0 0 0 0 0 0 0 0 0 0 0 0 0 0 0 0 0 0 0 0 0 0 0 0 0 0 0 0 0 0 0 0 0 0 0 0 0 0 0 0 0 0 0 0 0 0 0 0 0 0 0 0 0 0 0 0 0 0 0 0 0 0 0 0 0 0 0 0 0 0 0 0 0 0 0 0 0 0 0 0 0 0 0 0 0 0 0 0 0 0 0 0 0 0 0 0 0 0 0 0 0 0 0 0 0 0 0 0 0 0 0 0 0 0 0 0 0 0 0 0 0 0 0 0 0 0 0 0 0 0 0 0 0 0 0 0 0 0 0 0 0 0 0 0 0 0 0 0 0 0 0 0 -0 0 0 0 0 0 0 0 0 -0 0 0 0 0 0 0 0 0 0 0 0 0 0 0 0 0 -0 0 0 0 0 0 0 0 0 -0 0 0 0 0 0 0 0 0 0 0 0 0 0 0 0 0 0 0 0 0 0 -0 0 0 0 0 0 0 0 0 -0 0 0 0 0 0 0 0 0 0 0 0 0 0 0 0 0 0 0 0 0 0 0 0 0 0 0 0 0 0 0 0 0 0 0 0 0 0 0 0 0 0 0 0 0 0 0 0 0 0 0 0 0 0 0 0 0 0 0 0 0 0 0 0 0 0 
</DataArray>
<DataArray Name="Warping_Z" format="ascii" type="Float64">
0 0 0 0 0 0 0 0 0 0 0 0 0 0 0 0 0 0 0 0 0 0 0 0 0 0 0 0 0 0 0 0 0 0 0 0 0 0 0 0 0 0 0 0 0 0 0 0 0 0 0 0 0 0 0 0 0 0 0 0 0 0 0 0 0 0 0 0 0 0 0 0 0 0 0 0 0 0 0 0 0 0 0 0 0 0 0 0 0 0 0 0 0 0 0 0 0 0 0 0 0 0 0 0 0 0 0 0 0 0 0 0 0 0 0 0 0 0 0 0 0 0 0 0 0 0 0 0 0 0 0 0 0 0 0 0 0 0 0 0 0 0 0 0 0 0 0 0 0 0 0 0 0 0 0 0 0 0 0 0 0 0 0 0 0 0 0 0 0 0 0 0 0 0 0 0 0 0 0 0 0 0 0 0 0 0 0 0 0 0 0 0 0 0 0 0 0 0 0 0 0 0 0 0 0 0 0 0 0 0 0 0 0 0 0 0 0 0 0 0 0 0 0 0 0 0 0 0 0 0 0 0 0 0 0 0 0 0 0 0 0 0 0 0 0 0 0 0 0 0 0 0 0 0 0 0 0 0 0 0 0 0 0 0 0 0 0 0 0 0 0 0 0 0 0 0 0 0 0 0 0 0 0 0 0 0 0 0 0 0 0 0 0 0 0 0 0 0 0 0 0 0 0 0 0 0 0 0 0 0 0 0 0 0 0 0 0 0 0 0 0 0 0 0 0 0 0 0 0 0 0 0 0 0 0 0 0 0 0 0 0 0 
</DataArray>
</PointData>
<CellData>
<DataArray Name="MaterialId" format="ascii" type="Float64">
1 1 1 1 1 1 1 1 1 1 1 1 1 1 1 1 1 1 1 1 1 1 1 1 1 1 1 1 1 1 1 1 1 1 1 1 1 1 1 1 1 1 1 1 1 1 1 1 1 1 1 1 1 1 1 1 1 1 1 1 1 1 1 1 1 1 1 1 1 1 1 1 1 1 1 1 1 1 1 1 1 1 1 1 1 1 1 1 1 1 1 1 1 1 1 1 1 1 1 1 1 1 1 1 1 1 1 1 1 1 1 1 1 1 1 1 1 1 1 1 1 1 1 1 1 1 1 1 1 1 1 1 1 1 1 1 1 1 1 1 1 1 1 1 1 1 1 1 1 1 1 1 1 1 1 1 1 1 1 1 1 1 1 1 1 1 1 1 1 1 1 1 1 1 1 1 1 1 1 1 1 1 1 1 1 1 1 1 1 1 1 1 1 1 1 1 1 1 1 1 1 1 1 1 1 1 1 1 1 1 1 1 1 1 1 1 1 1 1 1 1 1 1 1 1 1 1 1 1 1 1 1 
</DataArray>
<DataArray Name="FiberAngle" format="ascii" type="Float64">
0 0 0 0 0 0 0 0 0 0 0 0 0 0 0 0 0 0 0 0 0 0 0 0 0 0 0 0 0 0 0 0 0 0 0 0 0 0 0 0 0 0 0 0 0 0 0 0 0 0 0 0 0 0 0 0 0 0 0 0 0 0 0 0 0 0 0 0 0 0 0 0 0 0 0 0 0 0 0 0 0 0 0 0 0 0 0 0 0 0 0 0 0 0 0 0 0 0 0 0 0 0 0 0 0 0 0 0 0 0 0 0 0 0 0 0 0 0 0 0 0 0 0 0 0 0 0 0 0 0 0 0 0 0 0 0 0 0 0 0 0 0 0 0 0 0 0 0 0 0 0 0 0 0 0 0 0 0 0 0 0 0 0 0 0 0 0 0 0 0 0 0 0 0 0 0 0 0 0 0 0 0 0 0 0 0 0 0 0 0 0 0 0 0 0 0 0 0 0 0 0 0 0 0 0 0 0 0 0 0 0 0 0 0 0 0 0 0 0 0 0 0 0 0 0 0 0 0 0 0 0 0 
</DataArray>
<DataArray Name="Strain_11" format="ascii" type="Float64">
0 0 0 0 0 0 0 0 0 0 0 0 0 0 0 0 0 0 0 0 0 0 0 0 0 0 0 0 0 0 0 0 0 0 0 0 0 0 0 0 0 0 0 0 0 0 0 0 0 0 0 0 0 0 0 0 0 0 0 0 0 0 0 0 0 0 0 0 0 0 0 0 0 0 0 0 0 0 0 0 0 0 0 0 0 0 0 0 0 0 0 0 0 0 0 0 0 0 0 0 0 0 0 0 0 0 0 0 0 0 0 0 0 0 0 0 0 0 0 0 0 0 0 0 0 0 0 0 0 0 0 0 0 0 0 0 0 0 0 0 0 0 0 0 0 0 0 0 0 0 0 0 0 0 0 0 0 0 0 0 0 0 0 0 0 0 0 0 0 0 0 0 0 0 0 0 0 0 0 0 0 0 0 0 0 0 0 0 0 0 0 0 0 0 0 0 0 0 0 0 0 0 0 0 0 0 0 0 0 0 0 0 0 0 0 0 0 0 0 0 0 0 0 0 0 0 0 0 0 0 0 0 
</DataArray>
<DataArray Name="Strain_22" format="ascii" type="Float64">
0 0 0 0 0 0 0 0 0 0 0 0 0 0 0 0 0 0 0 0 0 0 0 0 0 0 0 0 0 0 0 0 0 0 0 0 0 0 0 0 0 0 0 0 0 0 0 0 0 0 0 0 0 0 0 0 0 0 0 0 0 0 0 0 0 0 0 0 0 0 0 0 0 0 0 0 0 0 0 0 0 0 0 0 0 0 0 0 0 0 0 0 0 0 0 0 0 0 0 0 0 0 0 0 0 0 0 0 0 0 0 0 0 0 0 0 0 0 0 0 0 0 0 0 0 0 0 0 0 0 0 0 0 0 0 0 0 0 0 0 0 0 0 0 0 0 0 0 0 0 0 0 0 0 0 0 0 0 0 0 0 0 0 0 0 0 0 0 0 0 0 0 0 0 0 0 0 0 0 0 0 0 0 0 0 0 0 0 0 0 0 0 0 0 0 0 0 0 0 0 0 0 0 0 0 0 0 0 0 0 0 0 0 0 0 0 0 0 0 0 0 0 0 0 0 0 0 0 0 0 0 0 
</DataArray>
<DataArray Name="Strain_12" format="ascii" type="Float64">
0 0 0 0 0 0 0 0 0 0 0 0 0 0 0 0 0 0 0 0 0 0 0 0 0 0 0 0 0 0 0 0 0 0 0 0 0 0 0 0 0 0 0 0 0 0 0 0 0 0 0 0 0 0 0 0 0 0 0 0 0 0 0 0 0 0 0 0 0 0 0 0 0 0 0 0 0 0 0 0 0 0 0 0 0 0 0 0 0 0 0 0 0 0 0 0 0 0 0 0 0 0 0 0 0 0 0 0 0 0 0 0 0 0 0 0 0 0 0 0 0 0 0 0 0 0 0 0 0 0 0 0 0 0 0 0 0 0 0 0 0 0 0 0 0 0 0 0 0 0 0 0 0 0 0 0 0 0 0 0 0 0 0 0 0 0 0 0 0 0 0 0 0 0 0 0 0 0 0 0 0 0 0 0 0 0 0 0 0 0 0 0 0 0 0 0 0 0 0 0 0 0 0 0 0 0 0 0 0 0 0 0 0 0 0 0 0 0 0 0 0 0 0 0 0 0 0 0 0 0 0 0 
</DataArray>
<DataArray Name="Strain_13" format="ascii" type="Float64">
-0.311709 -0.749889 -0.299453 -0.758511 0.299453 0.758511 0.311709 0.749889 -0.211538 -0.566833 -0.0496851 -0.586435 0.0496851 0.586435 0.211538 0.566833 -0.116205 -0.499953 0.0167759 -0.68363 -0.0167759 0.68363 0.116205 0.499953 0.861023 0.259218 1.0501 0.28924 -1.0501 -0.28924 -0.861023 -0.259218 -0.333488 0.00766224 -0.0540136 -0.0198718 -0.00888443 0.00888443 0.0198718 0.0540136 -0.00766224 0.333488 -0.156749 -0.037798 -0.042309 -0.02293 -0.0079121 0.0079121 0.02293 0.042309 0.037798 0.156749 -0.272169 -0.00500325 -0.0514231 -0.0203632 -0.00877111 0.00877111 0.0203632 0.0514231 0.00500325 0.272169 -0.012803 -0.0717172 -0.0342462 -0.0248512 -0.0073442 0.0073442 0.0248512 0.0342462 0.0717172 0.012803 -0.359981 0.0164796 -0.0567997 -0.0190599 -0.00918998 0.00918998 0.0190599 0.0567997 -0.0164796 0.359981 0.00772227 -0.0781007 -0.0324481 -0.0254225 -0.00716709 0.00716709 0.0254225 0.0324481 0.0781007 -0.00772227 0.0851858 -0.0848378 -0.0333856 -0.0243164 -0.0076599 0.0076599 0.0243164 0.0333856 0.0848378 -0.0851858 0.422205 -0.171525 -0.0110666 -0.0301479 -0.00580588 0.00580588 0.0301479 0.0110666 0.171525 -0.422205 1.57 1.29165 1.10318 0.894125 0.689819 0.484267 0.279695 0.0718662 -0.121971 -0.376875 1.47514 1.34176 1.1185 0.915826 0.708404 0.502228 0.295073 0.0911735 -0.126716 -0.283544 -1.47514 -1.34176 -1.1185 -0.915826 -0.708404 -0.502228 -0.295073 -0.0911735 0.126716 0.283544 -1.57 -1.29165 -1.10318 -0.894125 -0.689819 -0.484267 -0.279695 -0.0718662 0.121971 0.376875 1.35279 1.07571 0.881861 0.668821 0.46025 0.250444 0.0418098 -0.170942 -0.366047 -0.637686 1.25278 1.10936 0.882719 0.675263 0.463339 0.252649 0.0407886 -0.166955 -0.392343 -0.541209 -1.25278 -1.10936 -0.882719 -0.675263 -0.463339 -0.252649 -0.0407886 0.166955 0.392343 0.541209 -1.35279 -1.07571 -0.881861 -0.668821 -0.46025 -0.250444 -0.0418098 0.170942 0.366047 0.637686 1.54959 1.09668 0.68028 0.254439 -0.16891 -0.593108 -1.01629 -1.44281 -1.85656 -2.31973 1.49541 1.09851 0.66508 0.241099 -0.185375 -0.611001 -1.03764 -1.46094 -1.89702 -2.28366 -1.49541 -1.09851 -0.66508 -0.241099 0.185375 0.611001 1.03764 1.46094 1.89702 2.28366 -1.54959 -1.09668 -0.68028 -0.254439 0.16891 0.593108 1.01629 1.44281 1.85656 2.31973 
</DataArray>
<DataArray Name="Strain_23" format="ascii" type="Float64">
-1.33417 -1.35634 -0.841299 -0.872909 -0.841299 -0.872909 -1.33417 -1.35634 -1.56905 -1.54801 -1.16187 -1.07013 -1.16187 -1.07013 -1.56905 -1.54801 -1.71094 -1.72241 -1.20137 -1.23547 -1.20137 -1.23547 -1.71094 -1.72241 -1.97075 -1.90794 -1.36215 -1.15578 -1.36215 -1.15578 -1.97075 -1.90794 0.183614 0.263732 0.396169 0.469427 0.508789 0.508789 0.469427 0.396169 0.263732 0.183614 0.0888855 0.317698 0.416956 0.498162 0.536032 0.536032 0.498162 0.416956 0.317698 0.0888855 0.285944 0.409725 0.532422 0.608016 0.64694 0.64694 0.608016 0.532422 0.409725 0.285944 0.2477 0.432843 0.541843 0.620713 0.659021 0.659021 0.620713 0.541843 0.432843 0.2477 0.724316 0.833405 0.958978 1.0336 1.07257 1.07257 1.0336 0.958978 0.833405 0.724316 0.646368 0.846196 0.952321 1.03216 1.07043 1.07043 1.03216 0.952321 0.846196 0.646368 0.418378 0.71113 0.796567 0.881395 0.918744 0.918744 0.881395 0.796567 0.71113 0.418378 0.611654 0.62783 0.774088 0.843724 0.883607 0.883607 0.843724 0.774088 0.62783 0.611654 -1.33322 -1.67511 -1.61332 -1.64788 -1.65955 -1.67589 -1.69457 -1.69827 -1.76587 -1.56508 -1.50854 -1.62994 -1.62495 -1.64491 -1.6602 -1.67619 -1.69271 -1.70567 -1.73709 -1.67678 -1.50854 -1.62994 -1.62495 -1.64491 -1.6602 -1.67619 -1.69271 -1.70567 -1.73709 -1.67678 -1.33322 -1.67511 -1.61332 -1.64788 -1.65955 -1.67589 -1.69457 -1.69827 -1.76587 -1.56508 -1.51607 -1.83865 -1.78155 -1.81547 -1.82775 -1.84417 -1.86409 -1.8645 -1.94728 -1.68598 -1.68016 -1.7963 -1.79247 -1.81269 -1.82832 -1.84463 -1.86165 -1.87411 -1.90999 -1.83048 -1.68016 -1.7963 -1.79247 -1.81269 -1.82832 -1.84463 -1.86165 -1.87411 -1.90999 -1.83048 -1.51607 -1.83865 -1.78155 -1.81547 -1.82775 -1.84417 -1.86409 -1.8645 -1.94728 -1.68598 -1.74629 -2.02519 -1.99409 -2.04367 -2.07269 -2.10526 -2.14384 -2.15422 -2.27416 -1.9734 -1.87272 -1.99162 -2.00299 -2.04136 -2.07309 -2.10595 -2.14066 -2.16637 -2.22835 -2.14593 -1.87272 -1.99162 -2.00299 -2.04136 -2.07309 -2.10595 -2.14066 -2.16637 -2.22835 -2.14593 -1.74629 -2.02519 -1.99409 -2.04367 -2.07269 -2.10526 -2.14384 -2.15422 -2.27416 -1.9734 
</DataArray>
<DataArray Name="Strain_33" format="ascii" type="Float64">
0 0 0 0 0 0 0 0 0 0 0 0 0 0 0 0 0 0 0 0 0 0 0 0 0 0 0 0 0 0 0 0 0 0 0 0 0 0 0 0 0 0 0 0 0 0 0 0 0 0 0 0 0 0 0 0 0 0 0 0 0 0 0 0 0 0 0 0 0 0 0 0 0 0 0 0 0 0 0 0 0 0 0 0 0 0 0 0 0 0 0 0 0 0 0 0 0 0 0 0 0 0 0 0 0 0 0 0 0 0 0 0 0 0 0 0 0 0 0 0 0 0 0 0 0 0 0 0 0 0 0 0 0 0 0 0 0 0 0 0 0 0 0 0 0 0 0 0 0 0 0 0 0 0 0 0 0 0 0 0 0 0 0 0 0 0 0 0 0 0 0 0 0 0 0 0 0 0 0 0 0 0 0 0 0 0 0 0 0 0 0 0 0 0 0 0 0 0 0 0 0 0 0 0 0 0 0 0 0 0 0 0 0 0 0 0 0 0 0 0 0 0 0 0 0 0 0 0 0 0 0 0 
</DataArray>
<DataArray Name="Stress_11" format="ascii" type="Float64">
0 0 0 0 0 0 0 0 0 0 0 0 0 0 0 0 0 0 0 0 0 0 0 0 0 0 0 0 0 0 0 0 0 0 0 0 0 0 0 0 0 0 0 0 0 0 0 0 0 0 0 0 0 0 0 0 0 0 0 0 0 0 0 0 0 0 0 0 0 0 0 0 0 0 0 0 0 0 0 0 0 0 0 0 0 0 0 0 0 0 0 0 0 0 0 0 0 0 0 0 0 0 0 0 0 0 0 0 0 0 0 0 0 0 0 0 0 0 0 0 0 0 0 0 0 0 0 0 0 0 0 0 0 0 0 0 0 0 0 0 0 0 0 0 0 0 0 0 0 0 0 0 0 0 0 0 0 0 0 0 0 0 0 0 0 0 0 0 0 0 0 0 0 0 0 0 0 0 0 0 0 0 0 0 0 0 0 0 0 0 0 0 0 0 0 0 0 0 0 0 0 0 0 0 0 0 0 0 0 0 0 0 0 0 0 0 0 0 0 0 0 0 0 0 0 0 0 0 0 0 0 0 
</DataArray>
<DataArray Name="Stress_22" format="ascii" type="Float64">
0 0 0 0 0 0 0 0 0 0 0 0 0 0 0 0 0 0 0 0 0 0 0 0 0 0 0 0 0 0 0 0 0 0 0 0 0 0 0 0 0 0 0 0 0 0 0 0 0 0 0 0 0 0 0 0 0 0 0 0 0 0 0 0 0 0 0 0 0 0 0 0 0 0 0 0 0 0 0 0 0 0 0 0 0 0 0 0 0 0 0 0 0 0 0 0 0 0 0 0 0 0 0 0 0 0 0 0 0 0 0 0 0 0 0 0 0 0 0 0 0 0 0 0 0 0 0 0 0 0 0 0 0 0 0 0 0 0 0 0 0 0 0 0 0 0 0 0 0 0 0 0 0 0 0 0 0 0 0 0 0 0 0 0 0 0 0 0 0 0 0 0 0 0 0 0 0 0 0 0 0 0 0 0 0 0 0 0 0 0 0 0 0 0 0 0 0 0 0 0 0 0 0 0 0 0 0 0 0 0 0 0 0 0 0 0 0 0 0 0 0 0 0 0 0 0 0 0 0 0 0 0 
</DataArray>
<DataArray Name="Stress_12" format="ascii" type="Float64">
0 0 0 0 0 0 0 0 0 0 0 0 0 0 0 0 0 0 0 0 0 0 0 0 0 0 0 0 0 0 0 0 0 0 0 0 0 0 0 0 0 0 0 0 0 0 0 0 0 0 0 0 0 0 0 0 0 0 0 0 0 0 0 0 0 0 0 0 0 0 0 0 0 0 0 0 0 0 0 0 0 0 0 0 0 0 0 0 0 0 0 0 0 0 0 0 0 0 0 0 0 0 0 0 0 0 0 0 0 0 0 0 0 0 0 0 0 0 0 0 0 0 0 0 0 0 0 0 0 0 0 0 0 0 0 0 0 0 0 0 0 0 0 0 0 0 0 0 0 0 0 0 0 0 0 0 0 0 0 0 0 0 0 0 0 0 0 0 0 0 0 0 0 0 0 0 0 0 0 0 0 0 0 0 0 0 0 0 0 0 0 0 0 0 0 0 0 0 0 0 0 0 0 0 0 0 0 0 0 0 0 0 0 0 0 0 0 0 0 0 0 0 0 0 0 0 0 0 0 0 0 0 
</DataArray>
<DataArray Name="Stress_13" format="ascii" type="Float64">
-12.988 -31.2456 -12.4773 -31.6049 12.4773 31.6049 12.988 31.2456 -8.81414 -23.6182 -2.07023 -24.435 2.07023 24.435 8.81414 23.6182 -4.84192 -20.8316 0.699003 -28.4848 -0.699003 28.4848 4.84192 20.8316 35.8762 10.8008 43.7547 12.0518 -43.7547 -12.0518 -35.8762 -10.8008 -13.8954 0.319263 -2.25059 -0.827997 -0.370187 0.370187 0.827997 2.25059 -0.319263 13.8954 -6.53125 -1.57493 -1.76289 -0.955422 -0.329673 0.329673 0.955422 1.76289 1.57493 6.53125 -11.3405 -0.208471 -2.14265 -0.848474 -0.365466 0.365466 0.848474 2.14265 0.208471 11.3405 -0.533461 -2.98824 -1.42694 -1.03548 -0.306011 0.306011 1.03548 1.42694 2.98824 0.533461 -14.9993 0.686654 -2.36667 -0.79417 -0.382919 0.382919 0.79417 2.36667 -0.686654 14.9993 0.321764 -3.25422 -1.35202 -1.05928 -0.298631 0.298631 1.05928 1.35202 3.25422 -0.321764 3.54944 -3.53494 -1.39108 -1.01319 -0.319165 0.319165 1.01319 1.39108 3.53494 -3.54944 17.592 -7.14692 -0.461112 -1.25617 -0.241914 0.241914 1.25617 0.461112 7.14692 -17.592 65.417 53.8192 45.9661 37.2555 28.7427 20.178 11.6541 2.99445 -5.08217 -15.7032 61.4645 55.9069 46.6045 38.1597 29.5171 20.9263 12.2948 3.79893 -5.27986 -11.8144 -61.4645 -55.9069 -46.6045 -38.1597 -29.5171 -20.9263 -12.2948 -3.79893 5.27986 11.8144 -65.417 -53.8192 -45.9661 -37.2555 -28.7427 -20.178 -11.6541 -2.99445 5.08217 15.7032 56.3666 44.8218 36.7445 27.8678 19.1772 10.4353 1.74209 -7.12264 -15.2521 -26.5705 52.1997 46.2237 36.7802 28.1362 19.306 10.5271 1.69954 -6.95653 -16.3478 -22.5506 -52.1997 -46.2237 -36.7802 -28.1362 -19.306 -10.5271 -1.69954 6.95653 16.3478 22.5506 -56.3666 -44.8218 -36.7445 -27.8678 -19.1772 -10.4353 -1.74209 7.12264 15.2521 26.5705 64.5667 45.6952 28.3452 10.6017 -7.03798 -24.713 -42.3458 -60.1177 -77.3575 -96.656 62.3094 45.7715 27.7119 10.0459 -7.72404 -25.4586 -43.2353 -60.873 -79.0429 -95.1534 -62.3094 -45.7715 -27.7119 -10.0459 7.72404 25.4586 43.2353 60.873 79.0429 95.1534 -64.5667 -45.6952 -28.3452 -10.6017 7.03798 24.713 42.3458 60.1177 77.3575 96.656 
</DataArray>
<DataArray Name="Stress_23" format="ascii" type="Float64">
-55.5907 -56.5145 -35.0544 -36.3715 -35.0544 -36.3715 -55.5907 -56.5145 -65.3777 -64.5009 -48.4115 -44.589 -48.4115 -44.589 -65.3777 -64.5009 -71.2899 -71.7677 -50.0576 -51.4782 -50.0576 -51.4782 -71.2899 -71.7677 -82.1154 -79.4982 -56.7568 -48.1581 -56.7568 -48.1581 -82.1154 -79.4982 7.65064 10.9889 16.5072 19.5596 21.1997 21.1997 19.5596 16.5072 10.9889 7.65064 3.70359 13.2375 17.3733 20.7569 22.3349 22.3349 20.7569 17.3733 13.2375 3.70359 11.9144 17.072 22.1844 25.3342 26.9561 26.9561 25.3342 22.1844 17.072 11.9144 10.3209 18.0353 22.577 25.8633 27.4594 27.4594 25.8633 22.577 18.0353 10.3209 30.1801 34.7255 39.9577 43.0671 44.6906 44.6906 43.0671 39.9577 34.7255 30.1801 26.9322 35.2585 39.6803 43.007 44.6015 44.6015 43.007 39.6803 35.2585 26.9322 17.4326 29.6306 33.1906 36.7251 38.2813 38.2813 36.7251 33.1906 29.6306 17.4326 25.4858 26.1598 32.2539 35.1554 36.8173 36.8173 35.1554 32.2539 26.1598 25.4858 -55.5514 -69.7967 -67.2222 -68.662 -69.1485 -69.8295 -70.6076 -70.7617 -73.5785 -65.2122 -62.8564 -67.9147 -67.7068 -68.5384 -69.1754 -69.8417 -70.5301 -71.0702 -72.3794 -69.8665 -62.8564 -67.9147 -67.7068 -68.5384 -69.1754 -69.8417 -70.5301 -71.0702 -72.3794 -69.8665 -55.5514 -69.7967 -67.2222 -68.662 -69.1485 -69.8295 -70.6076 -70.7617 -73.5785 -65.2122 -63.1699 -76.6109 -74.232 -75.6452 -76.1571 -76.8411 -77.6709 -77.6879 -81.1374 -70.2496 -70.0071 -74.8466 -74.6869 -75.5295 -76.1805 -76.86 -77.5694 -78.0884 -79.5836 -76.2707 -70.0071 -74.8466 -74.6869 -75.5295 -76.1805 -76.86 -77.5694 -78.0884 -79.5836 -76.2707 -63.1699 -76.6109 -74.232 -75.6452 -76.1571 -76.8411 -77.6709 -77.6879 -81.1374 -70.2496 -72.7625 -84.3834 -83.0879 -85.1535 -86.3627 -87.7197 -89.3275 -89.7599 -94.7572 -82.2255 -78.0308 -82.9849 -83.4585 -85.0574 -86.3794 -87.7484 -89.1948 -90.2662 -92.8487 -89.4146 -78.0308 -82.9849 -83.4585 -85.0574 -86.3794 -87.7484 -89.1948 -90.2662 -92.8487 -89.4146 -72.7625 -84.3834 -83.0879 -85.1535 -86.3627 -87.7197 -89.3275 -89.7599 -94.7572 -82.2255 
</DataArray>
<DataArray Name="Stress_33" format="ascii" type="Float64">
0 0 0 0 0 0 0 0 0 0 0 0 0 0 0 0 0 0 0 0 0 0 0 0 0 0 0 0 0 0 0 0 0 0 0 0 0 0 0 0 0 0 0 0 0 0 0 0 0 0 0 0 0 0 0 0 0 0 0 0 0 0 0 0 0 0 0 0 0 0 0 0 0 0 0 0 0 0 0 0 0 0 0 0 0 0 0 0 0 0 0 0 0 0 0 0 0 0 0 0 0 0 0 0 0 0 0 0 0 0 0 0 0 0 0 0 0 0 0 0 0 0 0 0 0 0 0 0 0 0 0 0 0 0 0 0 0 0 0 0 0 0 0 0 0 0 0 0 0 0 0 0 0 0 0 0 0 0 0 0 0 0 0 0 0 0 0 0 0 0 0 0 0 0 0 0 0 0 0 0 0 0 0 0 0 0 0 0 0 0 0 0 0 0 0 0 0 0 0 0 0 0 0 0 0 0 0 0 0 0 0 0 0 0 0 0 0 0 0 0 0 0 0 0 0 0 0 0 0 0 0 0 
</DataArray>
</CellData>
<Points>
<DataArray NumberOfComponents="3" format="ascii" type="Float64">
-0.5 -0.125 0 -0.49 -0.125 0 -0.495 -0.125 0 -0.49 -0.115 0 -0.49 -0.12 0 -0.5 -0.115 0 -0.495 -0.115 0 -0.5 -0.12 0 -0.495 -0.12 0 -0.5 0.115 0 -0.49 0.115 0 -0.495 0.115 0 -0.49 0.125 0 -0.49 0.12 0 -0.5 0.125 0 -0.495 0.125 0 -0.5 0.12 0 -0.495 0.12 0 -0.255 -0.125 0 -0.245 -0.125 0 -0.25 -0.125 0 -0.245 -0.115 0 -0.245 -0.12 0 -0.255 -0.115 0 -0.25 -0.115 0 -0.255 -0.12 0 -0.25 -0.12 0 -0.255 0.115 0 -0.245 0.115 0 -0.25 0.115 0 -0.245 0.125 0 -0.245 0.12 0 -0.255 0.125 0 -0.25 0.125 0 -0.255 0.12 0 -0.25 0.12 0 -0.005 -0.125 0 0.005 -0.125 0 0 -0.125 0 0.005 -0.115 0 0.005 -0.12 0 -0.005 -0.115 0 0 -0.115 0 -0.005 -0.12 0 0 -0.12 0 -0.005 0.115 0 0.005 0.115 0 0 0.115 0 0.005 0.125 0 0.005 0.12 0 -0.005 0.125 0 0 0.125 0 -0.005 0.12 0 0 0.12 0 0.49 -0.125 0 0.5 -0.125 0 0.495 -0.125 0 0.5 -0.115 0 0.5 -0.12 0 0.49 -0.115 0 0.495 -0.115 0 0.49 -0.12 0 0.495 -0.12 0 0.49 0.115 0 0.5 0.115 0 0.495 0.115 0 0.5 0.125 0 0.5 0.12 0 0.49 0.125 0 0.495 0.125 0 0.49 0.12 0 0.495 0.12 0 -0.5 -0.092 0 -0.5 -0.069 0 -0.5 -0.046 0 -0.5 -0.023 0 -0.5 0 0 -0.5 0.023 0 -0.5 0.046 0 -0.5 0.069 0 -0.5 0.092 0 -0.49 -0.092 0 -0.49 -0.069 0 -0.49 -0.046 0 -0.49 -0.023 0 -0.49 0 0 -0.49 0.023 0 -0.49 0.046 0 -0.49 0.069 0 -0.49 0.092 0 -0.495 -0.092 0 -0.495 -0.069 0 -0.495 -0.046 0 -0.495 -0.023 0 -0.495 0 0 -0.495 0.023 0 -0.495 0.046 0 -0.495 0.069 0 -0.495 0.092 0 -0.255 -0.092 0 -0.255 -0.069 0 -0.255 -0.046 0 -0.255 -0.023 0 -0.255 0 0 -0.255 0.023 0 -0.255 0.046 0 -0.255 0.069 0 -0.255 0.092 0 -0.245 -0.092 0 -0.245 -0.069 0 -0.245 -0.046 0 -0.245 -0.023 0 -0.245 0 0 -0.245 0.023 0 -0.245 0.046 0 -0.245 0.069 0 -0.245 0.092 0 -0.25 -0.092 0 -0.25 -0.069 0 -0.25 -0.046 0 -0.25 -0.023 0 -0.25 0 0 -0.25 0.023 0 -0.25 0.046 0 -0.25 0.069 0 -0.25 0.092 0 -0.005 -0.092 0 -0.005 -0.069 0 -0.005 -0.046 0 -0.005 -0.023 0 -0.005 0 0 -0.005 0.023 0 -0.005 0.046 0 -0.005 0.069 0 -0.005 0.092 0 0.005 -0.092 0 0.005 -0.069 0 0.005 -0.046 0 0.005 -0.023 0 0.005 0 0 0.005 0.023 0 0.005 0.046 0 0.005 0.069 0 0.005 0.092 0 0 -0.092 0 0 -0.069 0 0 -0.046 0 0 -0.023 0 0 0 0 0 0.023 0 0 0.046 0 0 0.069 0 0 0.092 0 0.49 -0.092 0 0.49 -0.069 0 0.49 -0.046 0 0.49 -0.023 0 0.49 0 0 0.49 0.023 0 0.49 0.046 0 0.49 0.069 0 0.49 0.092 0 0.5 -0.092 0 0.5 -0.069 0 0.5 -0.046 0 0.5 -0.023 0 0.5 0 0 0.5 0.023 0 0.5 0.046 0 0.5 0.069 0 0.5 0.092 0 0.495 -0.092 0 0.495 -0.069 0 0.495 -0.046 0 0.495 -0.023 0 0.495 0 0 0.495 0.023 0 0.495 0.046 0 0.495 0.069 0 0.495 0.092 0 -0.4665 0.125 0 -0.443 0.125 0 -0.4195 0.125 0 -0.396 0.125 0 -0.3725 0.125 0 -0.349 0.125 0 -0.3255 0.125 0 -0.302 0.125 0 -0.2785 0.125 0 -0.4665 0.115 0 -0.443 0.115 0 -0.4195 0.115 0 -0.396 0.115 0 -0.3725 0.115 0 -0.349 0.115 0 -0.3255 0.115 0 -0.302 0.115 0 -0.2785 0.115 0 -0.4665 0.12 0 -0.443 0.12 0 -0.4195 0.12 0 -0.396 0.12 0 -0.3725 0.12 0 -0.349 0.12 0 -0.3255 0.12 0 -0.302 0.12 0 -0.2785 0.12 0 -0.4665 -0.115 0 -0.443 -0.115 0 -0.4195 -0.115 0 -0.396 -0.115 0 -0.3725 -0.115 0 -0.349 -0.115 0 -0.3255 -0.115 0 -0.302 -0.115 0 -0.2785 -0.115 0 -0.4665 -0.125 0 -0.443 -0.125 0 -0.4195 -0.125 0 -0.396 -0.125 0 -0.3725 -0.125 0 -0.349 -0.125 0 -0.3255 -0.125 0 -0.302 -0.125 0 -0.2785 -0.125 0 -0.4665 -0.12 0 -0.443 -0.12 0 -0.4195 -0.12 0 -0.396 -0.12 0 -0.3725 -0.12 0 -0.349 -0.12 0 -0.3255 -0.12 0 -0.302 -0.12 0 -0.2785 -0.12 0 -0.221 0.125 0 -0.197 0.125 0 -0.173 0.125 0 -0.149 0.125 0 -0.125 0.125 0 -0.101 0.125 0 -0.077 0.125 0 -0.053 0.125 0 -0.029 0.125 0 -0.221 0.115 0 -0.197 0.115 0 -0.173 0.115 0 -0.149 0.115 0 -0.125 0.115 0 -0.101 0.115 0 -0.077 0.115 0 -0.053 0.115 0 -0.029 0.115 0 -0.221 0.12 0 -0.197 0.12 0 -0.173 0.12 0 -0.149 0.12 0 -0.125 0.12 0 -0.101 0.12 0 -0.077 0.12 0 -0.053 0.12 0 -0.029 0.12 0 -0.221 -0.115 0 -0.197 -0.115 0 -0.173 -0.115 0 -0.149 -0.115 0 -0.125 -0.115 0 -0.101 -0.115 0 -0.077 -0.115 0 -0.053 -0.115 0 -0.029 -0.115 0 -0.221 -0.125 0 -0.197 -0.125 0 -0.173 -0.125 0 -0.149 -0.125 0 -0.125 -0.125 0 -0.101 -0.125 0 -0.077 -0.125 0 -0.053 -0.125 0 -0.029 -0.125 0 -0.221 -0.12 0 -0.197 -0.12 0 -0.173 -0.12 0 -0.149 -0.12 0 -0.125 -0.12 0 -0.101 -0.12 0 -0.077 -0.12 0 -0.053 -0.12 0 -0.029 -0.12 0 0.0535 0.125 0 0.102 0.125 0 0.1505 0.125 0 0.199 0.125 0 0.2475 0.125 0 0.296 0.125 0 0.3445 0.125 0 0.393 0.125 0 0.4415 0.125 0 0.0535 0.115 0 0.102 0.115 0 0.1505 0.115 0 0.199 0.115 0 0.2475 0.115 0 0.296 0.115 0 0.3445 0.115 0 0.393 0.115 0 0.4415 0.115 0 0.0535 0.12 0 0.102 0.12 0 0.1505 0.12 0 0.199 0.12 0 0.2475 0.12 0 0.296 0.12 0 0.3445 0.12 0 0.393 0.12 0 0.4415 0.12 0 0.0535 -0.115 0 0.102 -0.115 0 0.1505 -0.115 0 0.199 -0.115 0 0.2475 -0.115 0 0.296 -0.115 0 0.3445 -0.115 0 0.393 -0.115 0 0.4415 -0.115 0 0.0535 -0.125 0 0.102 -0.125 0 0.1505 -0.125 0 0.199 -0.125 0 0.2475 -0.125 0 0.296 -0.125 0 0.3445 -0.125 0 0.393 -0.125 0 0.4415 -0.125 0 0.0535 -0.12 0 0.102 -0.12 0 0.1505 -0.12 0 0.199 -0.12 0 0.2475 -0.12 0 0.296 -0.12 0 0.3445 -0.12 0 0.393 -0.12 0 0.4415 -0.12 0 
</DataArray>
</Points>
<Cells>
<DataArray Name="connectivity" format="ascii" type="Int64">
0 2 8 7 2 1 4 8 7 8 6 5 8 4 3 6 9 11 17 16 11 10 13 17 16 17 15 14 17 13 12 15 18 20 26 25 20 19 22 26 25 26 24 23 26 22 21 24 27 29 35 34 29 28 31 35 34 35 33 32 35 31 30 33 36 38 44 43 38 37 40 44 43 44 42 41 44 40 39 42 45 47 53 52 47 46 49 53 52 53 51 50 53 49 48 51 54 56 62 61 56 55 58 62 61 62 60 59 62 58 57 60 63 65 71 70 65 64 67 71 70 71 69 68 71 67 66 69 3 81 90 6 81 82 91 90 82 83 92 91 83 84 93 92 84 85 94 93 85 86 95 94 86 87 96 95 87 88 97 96 88 89 98 97 89 10 11 98 6 90 72 5 90 91 73 72 91 92 74 73 92 93 75 74 93 94 76 75 94 95 77 76 95 96 78 77 96 97 79 78 97 98 80 79 98 11 9 80 21 108 117 24 108 109 118 117 109 110 119 118 110 111 120 119 111 112 121 120 112 113 122 121 113 114 123 122 114 115 124 123 115 116 125 124 116 28 29 125 24 117 99 23 117 118 100 99 118 119 101 100 119 120 102 101 120 121 103 102 121 122 104 103 122 123 105 104 123 124 106 105 124 125 107 106 125 29 27 107 39 135 144 42 135 136 145 144 136 137 146 145 137 138 147 146 138 139 148 147 139 140 149 148 140 141 150 149 141 142 151 150 142 143 152 151 143 46 47 152 42 144 126 41 144 145 127 126 145 146 128 127 146 147 129 128 147 148 130 129 148 149 131 130 149 150 132 131 150 151 133 132 151 152 134 133 152 47 45 134 57 162 171 60 162 163 172 171 163 164 173 172 164 165 174 173 165 166 175 174 166 167 176 175 167 168 177 176 168 169 178 177 169 170 179 178 170 64 65 179 60 171 153 59 171 172 154 153 172 173 155 154 173 174 156 155 174 175 157 156 175 176 158 157 176 177 159 158 177 178 160 159 178 179 161 160 179 65 63 161 10 189 198 13 189 190 199 198 190 191 200 199 191 192 201 200 192 193 202 201 193 194 203 202 194 195 204 203 195 196 205 204 196 197 206 205 197 27 34 206 13 198 180 12 198 199 181 180 199 200 182 181 200 201 183 182 201 202 184 183 202 203 185 184 203 204 186 185 204 205 187 186 205 206 188 187 206 34 32 188 1 216 225 4 216 217 226 225 217 218 227 226 218 219 228 227 219 220 229 228 220 221 230 229 221 222 231 230 222 223 232 231 223 224 233 232 224 18 25 233 4 225 207 3 225 226 208 207 226 227 209 208 227 228 210 209 228 229 211 210 229 230 212 211 230 231 213 212 231 232 214 213 232 233 215 214 233 25 23 215 28 243 252 31 243 244 253 252 244 245 254 253 245 246 255 254 246 247 256 255 247 248 257 256 248 249 258 257 249 250 259 258 250 251 260 259 251 45 52 260 31 252 234 30 252 253 235 234 253 254 236 235 254 255 237 236 255 256 238 237 256 257 239 238 257 258 240 239 258 259 241 240 259 260 242 241 260 52 50 242 19 270 279 22 270 271 280 279 271 272 281 280 272 273 282 281 273 274 283 282 274 275 284 283 275 276 285 284 276 277 286 285 277 278 287 286 278 36 43 287 22 279 261 21 279 280 262 261 280 281 263 262 281 282 264 263 282 283 265 264 283 284 266 265 284 285 267 266 285 286 268 267 286 287 269 268 287 43 41 269 46 297 306 49 297 298 307 306 298 299 308 307 299 300 309 308 300 301 310 309 301 302 311 310 302 303 312 311 303 304 313 312 304 305 314 313 305 63 70 314 49 306 288 48 306 307 289 288 307 308 290 289 308 309 291 290 309 310 292 291 310 311 293 292 311 312 294 293 312 313 295 294 313 314 296 295 314 70 68 296 37 324 333 40 324 325 334 333 325 326 335 334 326 327 336 335 327 328 337 336 328 329 338 337 329 330 339 338 330 331 340 339 331 332 341 340 332 54 61 341 40 333 315 39 333 334 316 315 334 335 317 316 335 336 318 317 336 337 319 318 337 338 320 319 338 339 321 320 339 340 322 321 340 341 323 322 341 61 59 323 
</DataArray>
<DataArray Name="offsets" format="ascii" type="Int64">
4 8 12 16 20 24 28 32 36 40 44 48 52 56 60 64 68 72 76 80 84 88 92 96 100 104 108 112 116 120 124 128 132 136 140 144 148 152 156 160 164 168 172 176 180 184 188 192 196 200 204 208 212 216 220 224 228 232 236 240 244 248 252 256 260 264 268 272 276 280 284 288 292 296 300 304 308 312 316 320 324 328 332 336 340 344 348 352 356 360 364 368 372 376 380 384 388 392 396 400 404 408 412 416 420 424 428 432 436 440 444 448 452 456 460 464 468 472 476 480 484 488 492 496 500 504 508 512 516 520 524 528 532 536 540 544 548 552 556 560 564 568 572 576 580 584 588 592 596 600 604 608 612 616 620 624 628 632 636 640 644 648 652 656 660 664 668 672 676 680 684 688 692 696 700 704 708 712 716 720 724 728 732 736 740 744 748 752 756 760 764 768 772 776 780 784 788 792 796 800 804 808 812 816 820 824 828 832 836 840 844 848 852 856 860 864 868 872 876 880 884 888 892 896 900 904 908 912 916 920 924 928 
</DataArray>
<DataArray Name="types" format="ascii" type="Int8">
9 9 9 9 9 9 9 9 9 9 9 9 9 9 9 9 9 9 9 9 9 9 9 9 9 9 9 9 9 9 9 9 9 9 9 9 9 9 9 9 9 9 9 9 9 9 9 9 9 9 9 9 9 9 9 9 9 9 9 9 9 9 9 9 9 9 9 9 9 9 9 9 9 9 9 9 9 9 9 9 9 9 9 9 9 9 9 9 9 9 9 9 9 9 9 9 9 9 9 9 9 9 9 9 9 9 9 9 9 9 9 9 9 9 9 9 9 9 9 9 9 9 9 9 9 9 9 9 9 9 9 9 9 9 9 9 9 9 9 9 9 9 9 9 9 9 9 9 9 9 9 9 9 9 9 9 9 9 9 9 9 9 9 9 9 9 9 9 9 9 9 9 9 9 9 9 9 9 9 9 9 9 9 9 9 9 9 9 9 9 9 9 9 9 9 9 9 9 9 9 9 9 9 9 9 9 9 9 9 9 9 9 9 9 9 9 9 9 9 9 9 9 9 9 9 9 9 9 9 9 9 9 
</DataArray>
</Cells>
</Piece>
</UnstructuredGrid>
</VTKFile>
