<?xml version="1.0"?>
<VTKFile byte_order="LittleEndian" type="UnstructuredGrid" version="0.1">
<UnstructuredGrid>
<Piece NumberOfCells="232" NumberOfPoints="342">
<PointData>
<DataArray Name="Warping_X" format="ascii" type="Float64">
0.0284906 0.0278699 0.0281803 0.0278564 0.0278629 0.0284774 0.0281671 0.0284839 0.0281736 0.0284774 0.0278564 0.0281671 0.0278699 0.0278629 0.0284906 0.0281803 0.0284839 0.0281736 0.0128906 0.0122366 0.0125637 0.0122215 0.0122289 0.0128755 0.0125487 0.0128829 0.0125561 0.0128755 0.0122215 0.0125487 0.0122366 0.0122289 0.0128906 0.0125637 0.0128829 0.0125561 -0.0038615 -0.00454902 -0.00420522 -0.00456441 -0.00455689 -0.00387679 -0.0042204 -0.00386931 -0.00421289 -0.00387679 -0.00456441 -0.0042204 -0.00454902 -0.00455689 -0.0038615 -0.00420522 -0.00386931 -0.00421289 -0.0395128 -0.0402672 -0.0398899 -0.0402811 -0.0402743 -0.039527 -0.0399039 -0.0395201 -0.039897 -0.039527 -0.0402811 -0.0399039 -0.0402672 -0.0402743 -0.0395128 -0.0398899 -0.0395201 -0.039897 0.0284522 0.0284326 0.0284187 0.0284103 0.0284075 0.0284103 0.0284187 0.0284326 0.0284522 0.0278313 0.0278117 0.0277977 0.0277893 0.0277865 0.0277893 0.0277977 0.0278117 0.0278313 0.0281419 0.0281223 0.0281084 0.0281 0.0280972 0.0281 0.0281084 0.0281223 0.0281419 0.0128466 0.0128241 0.0128081 0.0127985 0.0127952 0.0127985 0.0128081 0.0128241 0.0128466 0.0121927 0.0121702 0.0121541 0.0121445 0.0121413 0.0121445 0.0121541 0.0121702 0.0121927 0.0125198 0.0124973 0.0124813 0.0124717 0.0124684 0.0124717 0.0124813 0.0124973 0.0125198 -0.0039064 -0.00392944 -0.00394589 -0.00395576 -0.00395905 -0.00395576 -0.00394589 -0.00392944 -0.0039064 -0.00459398 -0.00461702 -0.00463347 -0.00464334 -0.00464663 -0.00464334 -0.00463347 -0.00461702 -0.00459398 -0.00425002 -0.00427306 -0.00428951 -0.00429938 -0.00430267 -0.00429938 -0.00428951 -0.00427306 -0.00425002 -0.0395537 -0.0395746 -0.0395895 -0.0395984 -0.0396014 -0.0395984 -0.0395895 -0.0395746 -0.0395537 -0.0403079 -0.0403288 -0.0403437 -0.0403526 -0.0403556 -0.0403526 -0.0403437 -0.0403288 -0.0403079 -0.0399307 -0.0399515 -0.0399664 -0.0399753 -0.0399783 -0.0399753 -0.0399664 -0.0399515 -0.0399307 0.0264059 0.0249344 0.0234553 0.0219687 0.0204746 0.0189729 0.0174636 0.0159468 0.0144225 0.0263912 0.0249187 0.0234389 0.0219518 0.0204574 0.0189556 0.0174466 0.0159302 0.0144065 0.0263984 0.0249264 0.0234469 0.0219601 0.0204658 0.0189641 0.0174549 0.0159383 0.0144143 0.0263912 0.0249187 0.0234389 0.0219518 0.0204574 0.0189556 0.0174466 0.0159302 0.0144065 0.0264059 0.0249344 0.0234553 0.0219687 0.0204746 0.0189729 0.0174636 0.0159468 0.0144225 0.0263984 0.0249264 0.0234469 0.0219601 0.0204658 0.0189641 0.0174549 0.0159383 0.0144143 0.0106619 0.00907948 0.0074892 0.00589111 0.00428521 0.00267149 0.00104996 -0.000579384 -0.00221655 0.0106463 0.00906338 0.00747277 0.00587447 0.00426848 0.00265481 0.00103344 -0.000595618 -0.00223236 0.0106539 0.00907126 0.00748082 0.00588263 0.00427668 0.00266298 0.00104153 -0.000587667 -0.00222463 0.0106463 0.00906338 0.00747277 0.00587447 0.00426848 0.00265481 0.00103344 -0.000595618 -0.00223236 0.0106619 0.00907948 0.0074892 0.00589111 0.00428521 0.00267149 0.00104996 -0.000579384 -0.00221655 0.0106539 0.00907126 0.00748082 0.00588263 0.00427668 0.00266298 0.00104153 -0.000587667 -0.00222463 -0.00790273 -0.011288 -0.014705 -0.0181538 -0.0216343 -0.0251465 -0.0286905 -0.0322662 -0.0358737 -0.00791875 -0.0113045 -0.0147218 -0.0181707 -0.0216512 -0.0251632 -0.0287068 -0.032282 -0.0358888 -0.00791091 -0.0112964 -0.0147136 -0.0181624 -0.0216429 -0.025155 -0.0286988 -0.0322743 -0.0358814 -0.00791875 -0.0113045 -0.0147218 -0.0181707 -0.0216512 -0.0251632 -0.0287068 -0.032282 -0.0358888 -0.00790273 -0.011288 -0.014705 -0.0181538 -0.0216343 -0.0251465 -0.0286905 -0.0322662 -0.0358737 -0.00791091 -0.0112964 -0.0147136 -0.0181624 -0.0216429 -0.025155 -0.0286988 -0.0322743 -0.0358814 
</DataArray>
<DataArray Name="Warping_Y" format="ascii" type="Float64">
0.00775523 0.00776888 0.00776209 0.0071473 0.0074581 0.00713515 0.00714117 0.00744512 0.00745161 -0.00713515 -0.0071473 -0.00714117 -0.00776888 -0.0074581 -0.00775523 -0.00776209 -0.00744512 -0.00745161 0.00816657 0.00818172 0.00817416 0.00752719 0.00785447 0.00751324 0.00752022 0.00783989 0.00784719 -0.00751324 -0.00752719 -0.00752022 -0.00818172 -0.00785447 -0.00816657 -0.00817416 -0.00783989 -0.00784719 0.00858704 0.00860225 0.00859472 0.00791435 0.00825831 0.00790005 0.00790717 0.00824353 0.00825093 -0.00790005 -0.00791435 -0.00790717 -0.00860225 -0.00825831 -0.00858704 -0.00859472 -0.00824353 -0.00825093 0.0094206 0.00943472 0.00942755 0.00867967 0.00905727 0.00866673 0.00867328 0.00904366 0.00905045 -0.00866673 -0.00867967 -0.00867328 -0.00943472 -0.00905727 -0.0094206 -0.00942755 -0.00904366 -0.00905045 0.00570811 0.00428108 0.00285405 0.00142703 -1.4507e-13 -0.00142703 -0.00285405 -0.00428108 -0.00570811 0.00571783 0.00428838 0.00285892 0.00142946 -1.50826e-13 -0.00142946 -0.00285892 -0.00428838 -0.00571783 0.00571299 0.00428473 0.00285649 0.00142824 -1.47947e-13 -0.00142824 -0.00285649 -0.00428473 -0.00571299 0.00601059 0.00450794 0.00300529 0.00150265 -1.00683e-14 -0.00150265 -0.00300529 -0.00450794 -0.00601059 0.00602175 0.00451631 0.00301088 0.00150544 -1.73061e-14 -0.00150544 -0.00301088 -0.00451631 -0.00602175 0.00601617 0.00451213 0.00300808 0.00150404 -1.3687e-14 -0.00150404 -0.00300808 -0.00451213 -0.00601617 0.00632003 0.00474002 0.00316001 0.00158001 2.1621e-13 -0.00158001 -0.00316001 -0.00474002 -0.00632003 0.00633147 0.00474861 0.00316574 0.00158287 2.10259e-13 -0.00158287 -0.00316574 -0.00474861 -0.00633147 0.00632576 0.00474431 0.00316288 0.00158144 2.13234e-13 -0.00158144 -0.00316288 -0.00474431 -0.00632576 0.0069334 0.00520004 0.0034667 0.00173335 -1.84364e-13 -0.00173335 -0.0034667 -0.00520004 -0.0069334 0.00694376 0.00520781 0.00347188 0.00173594 -1.84653e-13 -0.00173594 -0.00347188 -0.00520781 -0.00694376 0.00693856 0.00520393 0.00346929 0.00173464 -1.84509e-13 -0.00173464 -0.00346929 -0.00520393 -0.00693856 -0.00780377 -0.00784111 -0.00788046 -0.00792126 -0.00796297 -0.00800507 -0.008047 -0.00808825 -0.00812825 -0.00717896 -0.00721316 -0.00724934 -0.00728697 -0.00732552 -0.00736445 -0.00740323 -0.00744131 -0.00747817 -0.00749134 -0.00752713 -0.00756489 -0.00760411 -0.00764425 -0.00768476 -0.00772512 -0.00776479 -0.00780323 0.00717896 0.00721316 0.00724934 0.00728697 0.00732552 0.00736445 0.00740323 0.00744131 0.00747817 0.00780377 0.00784111 0.00788046 0.00792126 0.00796297 0.00800507 0.008047 0.00808825 0.00812825 0.00749134 0.00752713 0.00756489 0.00760411 0.00764425 0.00768476 0.00772512 0.00776479 0.00780323 -0.00822026 -0.00825997 -0.00830066 -0.008342 -0.00838369 -0.00842544 -0.00846694 -0.00850791 -0.008548 -0.00756241 -0.00759891 -0.00763636 -0.00767447 -0.00771293 -0.00775145 -0.00778973 -0.00782745 -0.00786434 -0.00789132 -0.00792944 -0.00796851 -0.00800823 -0.00804831 -0.00808845 -0.00812834 -0.00816768 -0.00820619 0.00756241 0.00759891 0.00763636 0.00767447 0.00771293 0.00775145 0.00778973 0.00782745 0.00786434 0.00822026 0.00825997 0.00830066 0.008342 0.00838369 0.00842544 0.00846694 0.00850791 0.008548 0.00789132 0.00792944 0.00796851 0.00800823 0.00804831 0.00808845 0.00812834 0.00816768 0.00820619 -0.00868199 -0.00876409 -0.00884811 -0.00893317 -0.00901846 -0.0091032 -0.00918656 -0.00926777 -0.00934593 -0.00798712 -0.0080628 -0.00814027 -0.0082188 -0.00829757 -0.00837578 -0.00845262 -0.00852727 -0.00859902 -0.00833455 -0.00841345 -0.00849419 -0.00857598 -0.00865802 -0.00873949 -0.00881959 -0.00889752 -0.00897248 0.00798712 0.0080628 0.00814027 0.0082188 0.00829757 0.00837578 0.00845262 0.00852727 0.00859902 0.00868199 0.00876409 0.00884811 0.00893317 0.00901846 0.0091032 0.00918656 0.00926777 0.00934593 0.00833455 0.00841345 0.00849419 0.00857598 0.00865802 0.00873949 0.00881959 0.00889752 0.00897248 
</DataArray>
<DataArray Name="Warping_Z" format="ascii" type="Float64">
0 0 0 0 0 0 0 0 0 0 0 0 0 0 0 0 0 0 0 0 0 0 0 0 0 0 0 0 0 0 0 0 0 0 0 0 0 0 0 0 0 0 0 0 0 0 0 0 0 0 0 0 0 0 0 0 0 0 0 0 0 0 0 0 0 0 0 0 0 0 0 0 0 0 0 0 0 0 0 0 0 0 0 0 0 0 0 0 0 0 0 0 0 0 0 0 0 0 0 0 0 0 0 0 0 0 0 0 0 0 0 0 0 0 0 0 0 0 0 0 0 0 0 0 0 0 0 0 0 0 0 0 0 0 0 0 0 0 0 0 0 0 0 0 0 0 0 0 0 0 0 0 0 0 0 0 0 0 0 0 0 0 0 0 0 0 0 0 0 0 0 0 0 0 0 0 0 0 0 0 0 0 0 0 0 0 0 0 0 0 0 0 0 0 0 0 0 0 0 0 0 0 0 0 0 0 0 0 0 0 0 0 0 0 0 0 0 0 0 0 0 0 0 0 0 0 0 0 0 0 0 0 0 0 0 0 0 0 0 0 0 0 0 0 0 0 0 0 0 0 0 0 0 0 0 0 0 0 0 0 0 0 0 0 0 0 0 0 0 0 0 0 0 0 0 0 0 0 0 0 0 0 0 0 0 0 0 0 0 0 0 0 0 0 0 0 0 0 0 0 0 0 0 0 0 0 0 0 0 0 0 0 0 0 0 0 0 0 0 0 0 0 0 0 0 0 0 0 0 0 0 0 0 0 0 0 0 0 0 0 0 0 
</DataArray>
</PointData>
<CellData>
<DataArray Name="MaterialId" format="ascii" type="Float64">
1 1 1 1 1 1 1 1 1 1 1 1 1 1 1 1 1 1 1 1 1 1 1 1 1 1 1 1 1 1 1 1 1 1 1 1 1 1 1 1 1 1 1 1 1 1 1 1 1 1 1 1 1 1 1 1 1 1 1 1 1 1 1 1 1 1 1 1 1 1 1 1 1 1 1 1 1 1 1 1 1 1 1 1 1 1 1 1 1 1 1 1 1 1 1 1 1 1 1 1 1 1 1 1 1 1 1 1 1 1 1 1 1 1 1 1 1 1 1 1 1 1 1 1 1 1 1 1 1 1 1 1 1 1 1 1 1 1 1 1 1 1 1 1 1 1 1 1 1 1 1 1 1 1 1 1 1 1 1 1 1 1 1 1 1 1 1 1 1 1 1 1 1 1 1 1 1 1 1 1 1 1 1 1 1 1 1 1 1 1 1 1 1 1 1 1 1 1 1 1 1 1 1 1 1 1 1 1 1 1 1 1 1 1 1 1 1 1 1 1 1 1 1 1 1 1 1 1 1 1 1 1 
</DataArray>
<DataArray Name="FiberAngle" format="ascii" type="Float64">
0 0 0 0 0 0 0 0 0 0 0 0 0 0 0 0 0 0 0 0 0 0 0 0 0 0 0 0 0 0 0 0 0 0 0 0 0 0 0 0 0 0 0 0 0 0 0 0 0 0 0 0 0 0 0 0 0 0 0 0 0 0 0 0 0 0 0 0 0 0 0 0 0 0 0 0 0 0 0 0 0 0 0 0 0 0 0 0 0 0 0 0 0 0 0 0 0 0 0 0 0 0 0 0 0 0 0 0 0 0 0 0 0 0 0 0 0 0 0 0 0 0 0 0 0 0 0 0 0 0 0 0 0 0 0 0 0 0 0 0 0 0 0 0 0 0 0 0 0 0 0 0 0 0 0 0 0 0 0 0 0 0 0 0 0 0 0 0 0 0 0 0 0 0 0 0 0 0 0 0 0 0 0 0 0 0 0 0 0 0 0 0 0 0 0 0 0 0 0 0 0 0 0 0 0 0 0 0 0 0 0 0 0 0 0 0 0 0 0 0 0 0 0 0 0 0 0 0 0 0 0 0 
</DataArray>
<DataArray Name="Strain_11" format="ascii" type="Float64">
-0.0620584 -0.062108 -0.0620645 -0.0621359 -0.0620645 -0.0621359 -0.0620584 -0.062108 -0.0653738 -0.0654218 -0.0653545 -0.0654315 -0.0653545 -0.0654315 -0.0653738 -0.0654218 -0.0687295 -0.0687798 -0.0687192 -0.0688008 -0.0687192 -0.0688008 -0.0687295 -0.0687798 -0.075407 -0.0754581 -0.0753769 -0.0754526 -0.0753769 -0.0754526 -0.075407 -0.0754581 -0.0621369 -0.0621304 -0.0621319 -0.0621316 -0.0621316 -0.0621316 -0.0621316 -0.0621319 -0.0621304 -0.0621369 -0.0620633 -0.0620603 -0.0620608 -0.0620607 -0.0620607 -0.0620607 -0.0620607 -0.0620608 -0.0620603 -0.0620633 -0.0654291 -0.065428 -0.0654283 -0.0654282 -0.0654283 -0.0654283 -0.0654282 -0.0654283 -0.065428 -0.0654291 -0.0653565 -0.06536 -0.0653591 -0.0653594 -0.0653593 -0.0653593 -0.0653594 -0.0653591 -0.06536 -0.0653565 -0.0687959 -0.0687917 -0.0687926 -0.0687924 -0.0687924 -0.0687924 -0.0687924 -0.0687926 -0.0687917 -0.0687959 -0.0687236 -0.0687241 -0.0687238 -0.0687239 -0.0687239 -0.0687239 -0.0687239 -0.0687238 -0.0687241 -0.0687236 -0.0754523 -0.0754555 -0.075455 -0.0754551 -0.0754551 -0.0754551 -0.0754551 -0.075455 -0.0754555 -0.0754523 -0.0753789 -0.0753863 -0.0753848 -0.0753851 -0.075385 -0.075385 -0.0753851 -0.0753848 -0.0753863 -0.0753789 -0.0623349 -0.0626482 -0.0629622 -0.063276 -0.0635898 -0.0639037 -0.0642175 -0.0645313 -0.0648453 -0.0651586 -0.0623099 -0.0626277 -0.0629466 -0.0632653 -0.063584 -0.0639027 -0.0642214 -0.06454 -0.0648589 -0.0651767 -0.0623099 -0.0626277 -0.0629466 -0.0632653 -0.063584 -0.0639027 -0.0642214 -0.06454 -0.0648589 -0.0651767 -0.0623349 -0.0626482 -0.0629622 -0.063276 -0.0635898 -0.0639037 -0.0642175 -0.0645313 -0.0648453 -0.0651586 -0.0656292 -0.0659501 -0.066272 -0.0665936 -0.0669153 -0.067237 -0.0675587 -0.0678803 -0.0682022 -0.068523 -0.0656172 -0.0659404 -0.066265 -0.0665892 -0.0669135 -0.0672378 -0.0675621 -0.0678864 -0.0682109 -0.0685341 -0.0656172 -0.0659404 -0.066265 -0.0665892 -0.0669135 -0.0672378 -0.0675621 -0.0678864 -0.0682109 -0.0685341 -0.0656292 -0.0659501 -0.066272 -0.0665936 -0.0669153 -0.067237 -0.0675587 -0.0678803 -0.0682022 -0.068523 -0.0691583 -0.0698061 -0.070459 -0.0711106 -0.0717625 -0.0724143 -0.0730663 -0.0737179 -0.0743707 -0.0750186 -0.0691518 -0.0698013 -0.0704559 -0.0711092 -0.0717629 -0.0724164 -0.07307 -0.0737233 -0.0743779 -0.0750274 -0.0691518 -0.0698013 -0.0704559 -0.0711092 -0.0717629 -0.0724164 -0.07307 -0.0737233 -0.0743779 -0.0750274 -0.0691583 -0.0698061 -0.070459 -0.0711106 -0.0717625 -0.0724143 -0.0730663 -0.0737179 -0.0743707 -0.0750186 
</DataArray>
<DataArray Name="Strain_22" format="ascii" type="Float64">
-0.0620596 -0.062126 -0.0620405 -0.0621234 -0.0620405 -0.0621234 -0.0620596 -0.062126 -0.0653642 -0.0654214 -0.0653623 -0.0654258 -0.0653623 -0.0654258 -0.0653642 -0.0654214 -0.0687305 -0.0687735 -0.0687241 -0.0687724 -0.0687241 -0.0687724 -0.0687305 -0.0687735 -0.0754048 -0.075456 -0.0754097 -0.075477 -0.0754097 -0.075477 -0.0754048 -0.075456 -0.0621229 -0.0621242 -0.0621239 -0.062124 -0.062124 -0.062124 -0.062124 -0.0621239 -0.0621242 -0.0621229 -0.0620702 -0.0620713 -0.0620711 -0.0620711 -0.0620711 -0.0620711 -0.0620711 -0.0620711 -0.0620713 -0.0620702 -0.0654236 -0.0654235 -0.0654235 -0.0654235 -0.0654235 -0.0654235 -0.0654235 -0.0654235 -0.0654235 -0.0654236 -0.0653632 -0.0653627 -0.0653628 -0.0653628 -0.0653628 -0.0653628 -0.0653628 -0.0653628 -0.0653627 -0.0653632 -0.0687888 -0.0687894 -0.0687893 -0.0687893 -0.0687893 -0.0687893 -0.0687893 -0.0687893 -0.0687894 -0.0687888 -0.0687268 -0.0687271 -0.0687271 -0.0687271 -0.0687271 -0.0687271 -0.0687271 -0.0687271 -0.0687271 -0.0687268 -0.0754484 -0.0754472 -0.0754475 -0.0754474 -0.0754474 -0.0754474 -0.0754474 -0.0754475 -0.0754472 -0.0754484 -0.0753924 -0.0753909 -0.0753912 -0.0753911 -0.0753911 -0.0753911 -0.0753911 -0.0753912 -0.0753909 -0.0753924 -0.0623186 -0.0626357 -0.0629524 -0.0632693 -0.0635862 -0.063903 -0.0642199 -0.0645368 -0.0648536 -0.0651708 -0.0623209 -0.0626418 -0.062956 -0.0632721 -0.0635876 -0.0639033 -0.0642189 -0.0645349 -0.0648491 -0.0651703 -0.0623209 -0.0626418 -0.062956 -0.0632721 -0.0635876 -0.0639033 -0.0642189 -0.0645349 -0.0648491 -0.0651703 -0.0623186 -0.0626357 -0.0629524 -0.0632693 -0.0635862 -0.063903 -0.0642199 -0.0645368 -0.0648536 -0.0651708 -0.0656199 -0.0659444 -0.0662675 -0.0665909 -0.0669142 -0.0672375 -0.0675608 -0.0678842 -0.0682071 -0.0685323 -0.0656192 -0.0659478 -0.066269 -0.066592 -0.0669146 -0.0672373 -0.0675599 -0.0678829 -0.0682041 -0.0685329 -0.0656192 -0.0659478 -0.066269 -0.066592 -0.0669146 -0.0672373 -0.0675599 -0.0678829 -0.0682041 -0.0685329 -0.0656199 -0.0659444 -0.0662675 -0.0665909 -0.0669142 -0.0672375 -0.0675608 -0.0678842 -0.0682071 -0.0685323 -0.0691391 -0.0698069 -0.0704561 -0.07111 -0.0717627 -0.0724157 -0.0730684 -0.0737222 -0.0743715 -0.0750391 -0.0691384 -0.0698087 -0.0704567 -0.0711104 -0.0717626 -0.0724152 -0.0730674 -0.073721 -0.0743691 -0.0750392 -0.0691384 -0.0698087 -0.0704567 -0.0711104 -0.0717626 -0.0724152 -0.0730674 -0.073721 -0.0743691 -0.0750392 -0.0691391 -0.0698069 -0.0704561 -0.07111 -0.0717627 -0.0724157 -0.0730684 -0.0737222 -0.0743715 -0.0750391 
</DataArray>
<DataArray Name="Strain_12" format="ascii" type="Float64">
-1.84899e-05 -4.75979e-05 -4.07085e-05 -4.21679e-05 4.07085e-05 4.21679e-05 1.84899e-05 4.75979e-05 -4.63387e-05 -4.50701e-05 -4.79941e-05 -4.73416e-05 4.79941e-05 4.73416e-05 4.63387e-05 4.50701e-05 -4.09132e-05 -6.25191e-05 -4.7723e-05 -4.60526e-05 4.7723e-05 4.60526e-05 4.09132e-05 6.25191e-05 -6.44281e-05 -1.55379e-05 -4.3844e-05 -4.54877e-05 4.3844e-05 4.54877e-05 6.44281e-05 1.55379e-05 4.72914e-06 -1.41598e-06 3.93886e-07 -1.04717e-07 3.1959e-08 -3.1959e-08 1.04717e-07 -3.93886e-07 1.41598e-06 -4.72914e-06 -4.72914e-06 1.41598e-06 -3.93886e-07 1.04717e-07 -3.1959e-08 3.1959e-08 -1.04717e-07 3.93886e-07 -1.41598e-06 4.72914e-06 -4.9459e-07 1.96978e-07 -6.46272e-08 1.93987e-08 -6.61042e-09 6.61044e-09 -1.93987e-08 6.46272e-08 -1.96978e-07 4.9459e-07 4.9459e-07 -1.96978e-07 6.46272e-08 -1.93987e-08 6.61043e-09 -6.61041e-09 1.93987e-08 -6.46272e-08 1.96978e-07 -4.9459e-07 2.77779e-06 -7.68334e-07 2.0098e-07 -5.0557e-08 1.45352e-08 -1.45351e-08 5.0557e-08 -2.0098e-07 7.68334e-07 -2.77779e-06 -2.77779e-06 7.68334e-07 -2.0098e-07 5.0557e-08 -1.45351e-08 1.45352e-08 -5.0557e-08 2.0098e-07 -7.68334e-07 2.77779e-06 -6.82955e-06 1.94033e-06 -5.18716e-07 1.33162e-07 -3.91647e-08 3.91647e-08 -1.33162e-07 5.18716e-07 -1.94033e-06 6.82955e-06 6.82955e-06 -1.94033e-06 5.18716e-07 -1.33162e-07 3.91647e-08 -3.91648e-08 1.33162e-07 -5.18716e-07 1.94033e-06 -6.82955e-06 -4.83547e-06 -2.47907e-06 -2.79461e-06 -2.78438e-06 -2.77332e-06 -2.76904e-06 -2.80227e-06 -2.71302e-06 -2.8336e-06 -3.36586e-06 -7.16634e-07 -3.07303e-06 -2.7575e-06 -2.76772e-06 -2.77878e-06 -2.78307e-06 -2.74983e-06 -2.83909e-06 -2.7185e-06 -2.18624e-06 7.16634e-07 3.07303e-06 2.7575e-06 2.76772e-06 2.77878e-06 2.78307e-06 2.74983e-06 2.83909e-06 2.7185e-06 2.18624e-06 4.83547e-06 2.47907e-06 2.79461e-06 2.78438e-06 2.77332e-06 2.76904e-06 2.80227e-06 2.71302e-06 2.8336e-06 3.36586e-06 -1.09019e-06 -1.83177e-06 -1.36898e-06 -1.54575e-06 -1.49342e-06 -1.49028e-06 -1.55625e-06 -1.32857e-06 -1.98173e-06 -5.64255e-07 -1.91465e-06 -1.17306e-06 -1.63586e-06 -1.45908e-06 -1.51141e-06 -1.51456e-06 -1.44858e-06 -1.67626e-06 -1.0231e-06 -2.44058e-06 1.91465e-06 1.17306e-06 1.63586e-06 1.45908e-06 1.51141e-06 1.51456e-06 1.44858e-06 1.67626e-06 1.0231e-06 2.44058e-06 1.09019e-06 1.83177e-06 1.36898e-06 1.54575e-06 1.49342e-06 1.49028e-06 1.55625e-06 1.32857e-06 1.98173e-06 5.64255e-07 -8.62817e-07 -2.21656e-06 -1.22566e-06 -1.63932e-06 -1.50474e-06 -1.50995e-06 -1.62302e-06 -1.28709e-06 -1.98395e-06 -1.73511e-06 -2.19938e-06 -8.45645e-07 -1.83654e-06 -1.42289e-06 -1.55746e-06 -1.55225e-06 -1.43918e-06 -1.77511e-06 -1.07825e-06 -1.3271e-06 2.19938e-06 8.45645e-07 1.83654e-06 1.42289e-06 1.55746e-06 1.55225e-06 1.43918e-06 1.77511e-06 1.07825e-06 1.3271e-06 8.62817e-07 2.21656e-06 1.22566e-06 1.63932e-06 1.50474e-06 1.50995e-06 1.62302e-06 1.28709e-06 1.98395e-06 1.73511e-06 
</DataArray>
<DataArray Name="Strain_13" format="ascii" type="Float64">
0 0 0 0 0 0 0 0 0 0 0 0 0 0 0 0 0 0 0 0 0 0 0 0 0 0 0 0 0 0 0 0 0 0 0 0 0 0 0 0 0 0 0 0 0 0 0 0 0 0 0 0 0 0 0 0 0 0 0 0 0 0 0 0 0 0 0 0 0 0 0 0 0 0 0 0 0 0 0 0 0 0 0 0 0 0 0 0 0 0 0 0 0 0 0 0 0 0 0 0 0 0 0 0 0 0 0 0 0 0 0 0 0 0 0 0 0 0 0 0 0 0 0 0 0 0 0 0 0 0 0 0 0 0 0 0 0 0 0 0 0 0 0 0 0 0 0 0 0 0 0 0 0 0 0 0 0 0 0 0 0 0 0 0 0 0 0 0 0 0 0 0 0 0 0 0 0 0 0 0 0 0 0 0 0 0 0 0 0 0 0 0 0 0 0 0 0 0 0 0 0 0 0 0 0 0 0 0 0 0 0 0 0 0 0 0 0 0 0 0 0 0 0 0 0 0 0 0 0 0 0 0 
</DataArray>
<DataArray Name="Strain_23" format="ascii" type="Float64">
0 0 0 0 0 0 0 0 0 0 0 0 0 0 0 0 0 0 0 0 0 0 0 0 0 0 0 0 0 0 0 0 0 0 0 0 0 0 0 0 0 0 0 0 0 0 0 0 0 0 0 0 0 0 0 0 0 0 0 0 0 0 0 0 0 0 0 0 0 0 0 0 0 0 0 0 0 0 0 0 0 0 0 0 0 0 0 0 0 0 0 0 0 0 0 0 0 0 0 0 0 0 0 0 0 0 0 0 0 0 0 0 0 0 0 0 0 0 0 0 0 0 0 0 0 0 0 0 0 0 0 0 0 0 0 0 0 0 0 0 0 0 0 0 0 0 0 0 0 0 0 0 0 0 0 0 0 0 0 0 0 0 0 0 0 0 0 0 0 0 0 0 0 0 0 0 0 0 0 0 0 0 0 0 0 0 0 0 0 0 0 0 0 0 0 0 0 0 0 0 0 0 0 0 0 0 0 0 0 0 0 0 0 0 0 0 0 0 0 0 0 0 0 0 0 0 0 0 0 0 0 0 
</DataArray>
<DataArray Name="Strain_33" format="ascii" type="Float64">
1 1 1 1 1 1 1 1 1 1 1 1 1 1 1 1 1 1 1 1 1 1 1 1 1 1 1 1 1 1 1 1 1 1 1 1 1 1 1 1 1 1 1 1 1 1 1 1 1 1 1 1 1 1 1 1 1 1 1 1 1 1 1 1 1 1 1 1 1 1 1 1 1 1 1 1 1 1 1 1 1 1 1 1 1 1 1 1 1 1 1 1 1 1 1 1 1 1 1 1 1 1 1 1 1 1 1 1 1 1 1 1 1 1 1 1 1 1 1 1 1 1 1 1 1 1 1 1 1 1 1 1 1 1 1 1 1 1 1 1 1 1 1 1 1 1 1 1 1 1 1 1 1 1 1 1 1 1 1 1 1 1 1 1 1 1 1 1 1 1 1 1 1 1 1 1 1 1 1 1 1 1 1 1 1 1 1 1 1 1 1 1 1 1 1 1 1 1 1 1 1 1 1 1 1 1 1 1 1 1 1 1 1 1 1 1 1 1 1 1 1 1 1 1 1 1 1 1 1 1 1 1 
</DataArray>
<DataArray Name="Stress_11" format="ascii" type="Float64">
19.1585 19.1512 19.1584 19.1481 19.1584 19.1481 19.1585 19.1512 18.6983 18.6914 18.7005 18.6902 18.7005 18.6902 18.6983 18.6914 18.232 18.2252 18.2333 18.2229 18.2333 18.2229 18.232 18.2252 17.3046 17.2975 17.3079 17.2976 17.3079 17.2976 17.3046 17.2975 19.148 19.1487 19.1486 19.1486 19.1486 19.1486 19.1486 19.1486 19.1487 19.148 19.1577 19.158 19.1579 19.1579 19.1579 19.1579 19.1579 19.1579 19.158 19.1577 18.6906 18.6907 18.6906 18.6907 18.6907 18.6907 18.6907 18.6906 18.6907 18.6906 18.7003 18.6999 18.7 18.7 18.7 18.7 18.7 18.7 18.6999 18.7003 18.223 18.2234 18.2233 18.2234 18.2234 18.2234 18.2234 18.2233 18.2234 18.223 18.2327 18.2327 18.2327 18.2327 18.2327 18.2327 18.2327 18.2327 18.2327 18.2327 17.2984 17.2981 17.2981 17.2981 17.2981 17.2981 17.2981 17.2981 17.2981 17.2984 17.3081 17.3073 17.3075 17.3075 17.3075 17.3075 17.3075 17.3075 17.3073 17.3081 19.1206 19.077 19.0333 18.9896 18.946 18.9023 18.8586 18.8149 18.7713 18.7276 19.1233 19.0791 19.0349 18.9907 18.9466 18.9024 18.8582 18.814 18.7699 18.7256 19.1233 19.0791 19.0349 18.9907 18.9466 18.9024 18.8582 18.814 18.7699 18.7256 19.1206 19.077 19.0333 18.9896 18.946 18.9023 18.8586 18.8149 18.7713 18.7276 18.6629 18.6182 18.5735 18.5287 18.484 18.4393 18.3946 18.3498 18.3051 18.2604 18.6642 18.6192 18.5742 18.5292 18.4842 18.4392 18.3942 18.3492 18.3042 18.2592 18.6642 18.6192 18.5742 18.5292 18.4842 18.4392 18.3942 18.3492 18.3042 18.2592 18.6629 18.6182 18.5735 18.5287 18.484 18.4393 18.3946 18.3498 18.3051 18.2604 18.173 18.0825 17.9919 17.9013 17.8108 17.7202 17.6296 17.5391 17.4485 17.358 18.1737 18.0829 17.9922 17.9015 17.8107 17.72 17.6292 17.5385 17.4478 17.357 18.1737 18.0829 17.9922 17.9015 17.8107 17.72 17.6292 17.5385 17.4478 17.357 18.173 18.0825 17.9919 17.9013 17.8108 17.7202 17.6296 17.5391 17.4485 17.358 
</DataArray>
<DataArray Name="Stress_22" format="ascii" type="Float64">
19.1584 19.1497 19.1604 19.1492 19.1604 19.1492 19.1584 19.1497 18.6991 18.6915 18.6999 18.6907 18.6999 18.6907 18.6991 18.6915 18.2319 18.2257 18.2329 18.2253 18.2329 18.2253 18.2319 18.2257 17.3048 17.2977 17.3051 17.2955 17.3051 17.2955 17.3048 17.2977 19.1492 19.1492 19.1492 19.1492 19.1492 19.1492 19.1492 19.1492 19.1492 19.1492 19.1571 19.1571 19.1571 19.1571 19.1571 19.1571 19.1571 19.1571 19.1571 19.1571 18.691 18.6911 18.691 18.6911 18.6911 18.6911 18.6911 18.691 18.6911 18.691 18.6997 18.6997 18.6997 18.6997 18.6997 18.6997 18.6997 18.6997 18.6997 18.6997 18.2236 18.2236 18.2236 18.2236 18.2236 18.2236 18.2236 18.2236 18.2236 18.2236 18.2325 18.2324 18.2324 18.2324 18.2324 18.2324 18.2324 18.2324 18.2324 18.2325 17.2987 17.2988 17.2988 17.2988 17.2988 17.2988 17.2988 17.2988 17.2988 17.2987 17.307 17.3069 17.307 17.307 17.307 17.307 17.307 17.307 17.3069 17.307 19.122 19.078 19.0341 18.9902 18.9463 18.9023 18.8584 18.8145 18.7706 18.7266 19.1224 19.0779 19.0341 18.9902 18.9463 18.9023 18.8584 18.8145 18.7707 18.7262 19.1224 19.0779 19.0341 18.9902 18.9463 18.9023 18.8584 18.8145 18.7707 18.7262 19.122 19.078 19.0341 18.9902 18.9463 18.9023 18.8584 18.8145 18.7706 18.7266 18.6636 18.6187 18.5738 18.529 18.4841 18.4392 18.3944 18.3495 18.3047 18.2597 18.6641 18.6186 18.5739 18.529 18.4841 18.4392 18.3944 18.3495 18.3048 18.2593 18.6641 18.6186 18.5739 18.529 18.4841 18.4392 18.3944 18.3495 18.3048 18.2593 18.6636 18.6187 18.5738 18.529 18.4841 18.4392 18.3944 18.3495 18.3047 18.2597 18.1746 18.0824 17.9921 17.9014 17.8107 17.7201 17.6294 17.5387 17.4484 17.3563 18.1748 18.0823 17.9921 17.9014 17.8107 17.7201 17.6295 17.5387 17.4485 17.356 18.1748 18.0823 17.9921 17.9014 17.8107 17.7201 17.6295 17.5387 17.4485 17.356 18.1746 18.0824 17.9921 17.9014 17.8107 17.7201 17.6294 17.5387 17.4484 17.3563 
</DataArray>
<DataArray Name="Stress_12" format="ascii" type="Float64">
-0.00077042 -0.00198326 -0.0016962 -0.00175701 0.0016962 0.00175701 0.00077042 0.00198326 -0.0019308 -0.00187793 -0.00199977 -0.00197258 0.00199977 0.00197258 0.0019308 0.00187793 -0.00170473 -0.00260498 -0.00198848 -0.00191887 0.00198848 0.00191887 0.00170473 0.00260498 -0.00268452 -0.000647416 -0.00182685 -0.00189534 0.00182685 0.00189534 0.00268452 0.000647416 0.000197049 -5.89998e-05 1.64121e-05 -4.36323e-06 1.33163e-06 -1.33163e-06 4.36323e-06 -1.64121e-05 5.89998e-05 -0.000197049 -0.000197049 5.89998e-05 -1.64121e-05 4.36323e-06 -1.33163e-06 1.33163e-06 -4.36322e-06 1.64121e-05 -5.89998e-05 0.000197049 -2.06081e-05 8.20748e-06 -2.69282e-06 8.08285e-07 -2.75436e-07 2.75437e-07 -8.08284e-07 2.69282e-06 -8.20747e-06 2.06081e-05 2.06081e-05 -8.20748e-06 2.69282e-06 -8.08285e-07 2.75437e-07 -2.75436e-07 8.08286e-07 -2.69282e-06 8.20748e-06 -2.06081e-05 0.000115742 -3.20142e-05 8.37423e-06 -2.10656e-06 6.05636e-07 -6.05636e-07 2.10656e-06 -8.37423e-06 3.20142e-05 -0.000115742 -0.000115742 3.20142e-05 -8.37423e-06 2.10656e-06 -6.05636e-07 6.05636e-07 -2.10656e-06 8.37423e-06 -3.20142e-05 0.000115742 -0.000284567 8.08478e-05 -2.16134e-05 5.54846e-06 -1.63188e-06 1.63188e-06 -5.54846e-06 2.16133e-05 -8.08478e-05 0.000284567 0.000284567 -8.08478e-05 2.16133e-05 -5.54846e-06 1.63188e-06 -1.63188e-06 5.54846e-06 -2.16134e-05 8.08478e-05 -0.000284567 -0.00020148 -0.000103296 -0.000116443 -0.000116017 -0.000115556 -0.000115377 -0.000116762 -0.000113043 -0.000118068 -0.000140245 -2.986e-05 -0.000128044 -0.000114897 -0.000115323 -0.000115784 -0.000115962 -0.000114577 -0.000118296 -0.000113272 -9.1094e-05 2.986e-05 0.000128044 0.000114897 0.000115323 0.000115784 0.000115962 0.000114577 0.000118296 0.000113272 9.1094e-05 0.00020148 0.000103296 0.000116443 0.000116017 0.000115556 0.000115377 0.000116762 0.000113043 0.000118068 0.000140245 -4.54248e-05 -7.63243e-05 -5.70411e-05 -6.4407e-05 -6.22263e-05 -6.20953e-05 -6.48443e-05 -5.53577e-05 -8.25728e-05 -2.35108e-05 -7.97776e-05 -4.88781e-05 -6.81613e-05 -6.07954e-05 -6.2976e-05 -6.3107e-05 -6.0358e-05 -6.98447e-05 -4.26295e-05 -0.000101692 7.97776e-05 4.88781e-05 6.81613e-05 6.07954e-05 6.2976e-05 6.3107e-05 6.0358e-05 6.98447e-05 4.26295e-05 0.000101692 4.54248e-05 7.63243e-05 5.70411e-05 6.4407e-05 6.22263e-05 6.20953e-05 6.48443e-05 5.53577e-05 8.25728e-05 2.35108e-05 -3.5951e-05 -9.23572e-05 -5.10696e-05 -6.83054e-05 -6.26982e-05 -6.29152e-05 -6.76263e-05 -5.36293e-05 -8.26654e-05 -7.22967e-05 -9.16417e-05 -3.52355e-05 -7.65231e-05 -5.92874e-05 -6.48946e-05 -6.46775e-05 -5.99665e-05 -7.39634e-05 -4.49273e-05 -5.52961e-05 9.16417e-05 3.52355e-05 7.65231e-05 5.92874e-05 6.48946e-05 6.46775e-05 5.99665e-05 7.39634e-05 4.49273e-05 5.52961e-05 3.5951e-05 9.23572e-05 5.10696e-05 6.83054e-05 6.26982e-05 6.29152e-05 6.76263e-05 5.36293e-05 8.26654e-05 7.22967e-05 
</DataArray>
<DataArray Name="Stress_13" format="ascii" type="Float64">
0 0 0 0 0 0 0 0 0 0 0 0 0 0 0 0 0 0 0 0 0 0 0 0 0 0 0 0 0 0 0 0 0 0 0 0 0 0 0 0 0 0 0 0 0 0 0 0 0 0 0 0 0 0 0 0 0 0 0 0 0 0 0 0 0 0 0 0 0 0 0 0 0 0 0 0 0 0 0 0 0 0 0 0 0 0 0 0 0 0 0 0 0 0 0 0 0 0 0 0 0 0 0 0 0 0 0 0 0 0 0 0 0 0 0 0 0 0 0 0 0 0 0 0 0 0 0 0 0 0 0 0 0 0 0 0 0 0 0 0 0 0 0 0 0 0 0 0 0 0 0 0 0 0 0 0 0 0 0 0 0 0 0 0 0 0 0 0 0 0 0 0 0 0 0 0 0 0 0 0 0 0 0 0 0 0 0 0 0 0 0 0 0 0 0 0 0 0 0 0 0 0 0 0 0 0 0 0 0 0 0 0 0 0 0 0 0 0 0 0 0 0 0 0 0 0 0 0 0 0 0 0 
</DataArray>
<DataArray Name="Stress_23" format="ascii" type="Float64">
0 0 0 0 0 0 0 0 0 0 0 0 0 0 0 0 0 0 0 0 0 0 0 0 0 0 0 0 0 0 0 0 0 0 0 0 0 0 0 0 0 0 0 0 0 0 0 0 0 0 0 0 0 0 0 0 0 0 0 0 0 0 0 0 0 0 0 0 0 0 0 0 0 0 0 0 0 0 0 0 0 0 0 0 0 0 0 0 0 0 0 0 0 0 0 0 0 0 0 0 0 0 0 0 0 0 0 0 0 0 0 0 0 0 0 0 0 0 0 0 0 0 0 0 0 0 0 0 0 0 0 0 0 0 0 0 0 0 0 0 0 0 0 0 0 0 0 0 0 0 0 0 0 0 0 0 0 0 0 0 0 0 0 0 0 0 0 0 0 0 0 0 0 0 0 0 0 0 0 0 0 0 0 0 0 0 0 0 0 0 0 0 0 0 0 0 0 0 0 0 0 0 0 0 0 0 0 0 0 0 0 0 0 0 0 0 0 0 0 0 0 0 0 0 0 0 0 0 0 0 0 0 
</DataArray>
<DataArray Name="Stress_33" format="ascii" type="Float64">
107.663 107.66 107.664 107.659 107.664 107.659 107.663 107.66 107.479 107.477 107.48 107.476 107.48 107.476 107.479 107.477 107.293 107.29 107.293 107.29 107.293 107.29 107.293 107.29 106.922 106.919 106.923 106.919 106.923 106.919 106.922 106.919 107.659 107.66 107.66 107.66 107.66 107.66 107.66 107.66 107.66 107.659 107.663 107.663 107.663 107.663 107.663 107.663 107.663 107.663 107.663 107.663 107.476 107.476 107.476 107.476 107.476 107.476 107.476 107.476 107.476 107.476 107.48 107.48 107.48 107.48 107.48 107.48 107.48 107.48 107.48 107.48 107.289 107.289 107.289 107.289 107.289 107.289 107.289 107.289 107.289 107.289 107.293 107.293 107.293 107.293 107.293 107.293 107.293 107.293 107.293 107.293 106.919 106.919 106.919 106.919 106.919 106.919 106.919 106.919 106.919 106.919 106.923 106.923 106.923 106.923 106.923 106.923 106.923 106.923 106.923 106.923 107.649 107.631 107.613 107.596 107.578 107.561 107.543 107.526 107.508 107.491 107.649 107.631 107.614 107.596 107.579 107.561 107.543 107.526 107.508 107.49 107.649 107.631 107.614 107.596 107.579 107.561 107.543 107.526 107.508 107.49 107.649 107.631 107.613 107.596 107.578 107.561 107.543 107.526 107.508 107.491 107.465 107.447 107.429 107.412 107.394 107.376 107.358 107.34 107.322 107.304 107.466 107.448 107.43 107.412 107.394 107.376 107.358 107.34 107.322 107.304 107.466 107.448 107.43 107.412 107.394 107.376 107.358 107.34 107.322 107.304 107.465 107.447 107.429 107.412 107.394 107.376 107.358 107.34 107.322 107.304 107.27 107.233 107.197 107.161 107.124 107.088 107.052 107.016 106.979 106.943 107.27 107.233 107.197 107.161 107.124 107.088 107.052 107.015 106.979 106.943 107.27 107.233 107.197 107.161 107.124 107.088 107.052 107.015 106.979 106.943 107.27 107.233 107.197 107.161 107.124 107.088 107.052 107.016 106.979 106.943 
</DataArray>
</CellData>
<Points>
<DataArray NumberOfComponents="3" format="ascii" type="Float64">