<?xml version="1.0"?>
<VTKFile byte_order="LittleEndian" type="UnstructuredGrid" version="0.1">
<UnstructuredGrid>
<Piece NumberOfCells="232" NumberOfPoints="342">
<PointData>
<DataArray Name="Warping_X" format="ascii" type="Float64">
-0.380568 -0.372833 -0.376746 -0.34463 -0.35876 -0.351633 -0.348126 -0.366087 -0.362436 0.351633 0.34463 0.348126 0.372833 0.35876 0.380568 0.376746 0.366087 0.362436 -0.194998 -0.187007 -0.191023 -0.17287 -0.179982 -0.179781 -0.176323 -0.187352 -0.183668 0.179781 0.17287 0.176323 0.187007 0.179982 0.194998 0.191023 0.187352 0.183668 -0.00404165 0.00431711 4.68694e-05 0.000683486 0.00244688 -0.00607484 -0.00268248 -0.004997 -0.0012834 0.00607484 -0.000683486 0.00268248 -0.00431711 -0.00244688 0.00404165 -4.68694e-05 0.004997 0.0012834 0.367298 0.375356 0.371477 0.350172 0.362748 0.343321 0.346726 0.355359 0.35909 -0.343321 -0.350172 -0.346726 -0.375356 -0.362748 -0.367298 -0.371477 -0.355359 -0.35909 -0.283471 -0.213882 -0.143193 -0.0717785 4.71967e-13 0.0717785 0.143193 0.213882 0.283471 -0.277878 -0.209683 -0.140395 -0.0703793 4.71643e-13 0.0703793 0.140395 0.209683 0.277878 -0.280688 -0.211788 -0.141798 -0.071081 4.71995e-13 0.071081 0.141798 0.211788 0.280688 -0.144744 -0.109064 -0.0729556 -0.036551 -2.44083e-13 0.036551 0.0729556 0.109064 0.144744 -0.139129 -0.104871 -0.0701565 -0.035152 -2.43923e-13 0.035152 0.0701565 0.104871 0.139129 -0.141942 -0.10697 -0.0715579 -0.0358524 -2.44105e-13 0.0358524 0.0715579 0.10697 0.141942 -0.00910768 -0.0092331 -0.00731217 -0.00400162 5.31659e-13 0.00400162 0.00731217 0.0092331 0.00910768 -0.00345713 -0.00504725 -0.00451158 -0.00260288 5.31629e-13 0.00260288 0.00451158 0.00504725 0.00345713 -0.00630751 -0.00715016 -0.00592064 -0.00330619 5.31872e-13 0.00330619 0.00592064 0.00715016 0.00630751 0.281756 0.21555 0.1457 0.073452 -9.18727e-13 -0.073452 -0.1457 -0.21555 -0.281756 0.287382 0.219743 0.148499 0.0748511 -9.19134e-13 -0.0748511 -0.148499 -0.219743 -0.287382 0.284612 0.217664 0.147115 0.0741584 -9.19348e-13 -0.0741584 -0.147115 -0.217664 -0.284612 0.355055 0.337265 0.319481 0.301695 0.283909 0.266123 0.248337 0.230553 0.212761 0.328146 0.311656 0.29517 0.278683 0.262196 0.24571 0.229222 0.212737 0.196244 0.341591 0.324464 0.307325 0.290189 0.273053 0.255916 0.23878 0.221643 0.204511 -0.328146 -0.311656 -0.29517 -0.278683 -0.262196 -0.24571 -0.229222 -0.212737 -0.196244 -0.355055 -0.337265 -0.319481 -0.301695 -0.283909 -0.266123 -0.248337 -0.230553 -0.212761 -0.341591 -0.324464 -0.307325 -0.290189 -0.273053 -0.255916 -0.23878 -0.221643 -0.204511 0.168725 0.150417 0.132118 0.113815 0.0955139 0.0772123 0.0589103 0.0406108 0.0222991 0.156203 0.139512 0.122829 0.106143 0.089458 0.0727729 0.0560872 0.0394048 0.0227073 0.162452 0.144968 0.127472 0.109979 0.0924859 0.0749926 0.0574991 0.0400054 0.0225159 -0.156203 -0.139512 -0.122829 -0.106143 -0.089458 -0.0727729 -0.0560872 -0.0394048 -0.0227073 -0.168725 -0.150417 -0.132118 -0.113815 -0.0955139 -0.0772123 -0.0589103 -0.0406108 -0.0222991 -0.162452 -0.144968 -0.127472 -0.109979 -0.0924859 -0.0749926 -0.0574991 -0.0400054 -0.0225159 -0.0406103 -0.0769099 -0.113205 -0.149503 -0.185799 -0.222096 -0.258393 -0.294689 -0.330984 -0.0349446 -0.0692085 -0.103469 -0.137731 -0.171993 -0.206254 -0.240516 -0.274778 -0.309037 -0.0377928 -0.0730549 -0.108338 -0.143617 -0.178896 -0.214176 -0.249453 -0.284738 -0.319995 0.0349446 0.0692085 0.103469 0.137731 0.171993 0.206254 0.240516 0.274778 0.309037 0.0406103 0.0769099 0.113205 0.149503 0.185799 0.222096 0.258393 0.294689 0.330984 0.0377928 0.0730549 0.108338 0.143617 0.178896 0.214176 0.249453 0.284738 0.319995 
</DataArray>
<DataArray Name="Warping_Y" format="ascii" type="Float64">
0.378597 0.349849 0.364156 0.357092 0.35356 0.386045 0.371471 0.382348 0.367883 0.386045 0.357092 0.371471 0.349849 0.35356 0.378597 0.364156 0.382348 0.367883 -0.160412 -0.175175 -0.167912 -0.167906 -0.171462 -0.153106 -0.160598 -0.156686 -0.164207 -0.153106 -0.167906 -0.160598 -0.175175 -0.171462 -0.160412 -0.167912 -0.156686 -0.164207 -0.320544 -0.318149 -0.319495 -0.310911 -0.314437 -0.313186 -0.312161 -0.316811 -0.315814 -0.313186 -0.310911 -0.312161 -0.318149 -0.314437 -0.320544 -0.319495 -0.316811 -0.315814 0.351473 0.376681 0.364035 0.384458 0.380491 0.358667 0.371406 0.355174 0.367761 0.358667 0.384458 0.371406 0.376681 0.380491 0.351473 0.364035 0.355174 0.367761 0.400864 0.412408 0.42065 0.425596 0.427244 0.425596 0.42065 0.412408 0.400864 0.371206 0.382195 0.390042 0.394751 0.39632 0.394751 0.390042 0.382195 0.371206 0.385964 0.397225 0.40527 0.410097 0.411706 0.410097 0.40527 0.397225 0.385964 -0.138476 -0.1271 -0.118976 -0.1141 -0.112476 -0.1141 -0.118976 -0.1271 -0.138476 -0.15356 -0.142409 -0.134444 -0.129664 -0.128072 -0.129664 -0.134444 -0.142409 -0.15356 -0.146087 -0.134833 -0.126785 -0.121959 -0.120349 -0.121959 -0.126785 -0.134833 -0.146087 -0.29801 -0.286218 -0.277799 -0.272745 -0.271061 -0.272745 -0.277799 -0.286218 -0.29801 -0.297074 -0.286339 -0.278672 -0.274069 -0.272536 -0.274069 -0.278672 -0.286339 -0.297074 -0.297599 -0.286361 -0.278309 -0.273484 -0.271874 -0.273484 -0.278309 -0.286361 -0.297599 0.371964 0.382318 0.389707 0.394143 0.395621 0.394143 0.389707 0.382318 0.371964 0.400084 0.412274 0.420969 0.426189 0.427929 0.426189 0.420969 0.412274 0.400084 0.385973 0.397213 0.405264 0.41009 0.411699 0.41009 0.405264 0.397213 0.385973 0.285065 0.223361 0.164706 0.109103 0.0565526 0.00705444 -0.039391 -0.0827848 -0.123125 0.292379 0.230661 0.172008 0.116405 0.0638543 0.0143564 -0.0320896 -0.0754816 -0.115826 0.288796 0.22709 0.168434 0.112832 0.0602812 0.0107832 -0.0356624 -0.0790558 -0.119396 0.292379 0.230661 0.172008 0.116405 0.0638543 0.0143564 -0.0320896 -0.0754816 -0.115826 0.285065 0.223361 0.164706 0.109103 0.0565526 0.00705444 -0.039391 -0.0827848 -0.123125 0.288796 0.22709 0.168434 0.112832 0.0602812 0.0107832 -0.0356624 -0.0790558 -0.119396 -0.207183 -0.235293 -0.259526 -0.27988 -0.296354 -0.308948 -0.317663 -0.3225 -0.32345 -0.199875 -0.227991 -0.252224 -0.272577 -0.289051 -0.301646 -0.310362 -0.315193 -0.316165 -0.203456 -0.231568 -0.255801 -0.276155 -0.292629 -0.305223 -0.313938 -0.318774 -0.319728 -0.199875 -0.227991 -0.252224 -0.272577 -0.289051 -0.301646 -0.310362 -0.315193 -0.316165 -0.207183 -0.235293 -0.259526 -0.27988 -0.296354 -0.308948 -0.317663 -0.3225 -0.32345 -0.203456 -0.231568 -0.255801 -0.276155 -0.292629 -0.305223 -0.313938 -0.318774 -0.319728 -0.295633 -0.26321 -0.220925 -0.168769 -0.106743 -0.0348473 0.046918 0.138556 0.240051 -0.288311 -0.255907 -0.213618 -0.161463 -0.0994368 -0.0275413 0.0542257 0.145856 0.247384 -0.291893 -0.259476 -0.21719 -0.165034 -0.103008 -0.0311122 0.0506534 0.142289 0.243793 -0.288311 -0.255907 -0.213618 -0.161463 -0.0994368 -0.0275413 0.0542257 0.145856 0.247384 -0.295633 -0.26321 -0.220925 -0.168769 -0.106743 -0.0348473 0.046918 0.138556 0.240051 -0.291893 -0.259476 -0.21719 -0.165034 -0.103008 -0.0311122 0.0506534 0.142289 0.243793 
</DataArray>
<DataArray Name="Warping_Z" format="ascii" type="Float64">
0 0 0 0 0 0 0 0 0 0 0 0 0 0 0 0 0 0 0 0 0 0 0 0 0 0 0 0 0 0 0 0 0 0 0 0 0 0 0 0 0 0 0 0 0 0 0 0 0 0 0 0 0 0 0 0 0 0 0 0 0 0 0 0 0 0 0 0 0 0 0 0 0 0 0 0 0 0 0 0 0 0 0 0 0 0 0 0 0 0 0 0 0 0 0 0 0 0 0 0 0 0 0 0 0 0 0 0 0 0 0 0 0 0 0 0 0 0 0 0 0 0 0 0 0 0 0 0 0 0 0 0 0 0 0 0 0 0 0 0 0 0 0 0 0 0 0 0 0 0 0 0 0 0 0 0 0 0 0 0 0 0 0 0 0 0 0 0 0 0 0 0 0 0 0 0 0 0 0 0 0 0 0 0 0 0 0 0 0 0 0 0 0 0 0 0 0 0 0 0 0 0 0 0 0 0 0 0 0 0 0 0 0 0 0 0 0 0 0 0 0 0 0 0 0 0 0 0 0 0 0 0 0 0 0 0 0 0 0 0 0 0 0 0 0 0 0 0 0 0 0 0 0 0 0 0 0 0 0 0 0 0 0 0 0 0 0 0 0 0 0 0 0 0 0 0 0 0 0 0 0 0 0 0 0 0 0 0 0 0 0 0 0 0 0 0 0 0 0 0 0 0 0 0 0 0 0 0 0 0 0 0 0 0 0 0 0 0 0 0 0 0 0 0 0 0 0 0 0 0 0 0 0 0 0 0 0 0 0 0 0 0 
</DataArray>
</PointData>
<CellData>
<DataArray Name="MaterialId" format="ascii" type="Float64">
1 1 1 1 1 1 1 1 1 1 1 1 1 1 1 1 1 1 1 1 1 1 1 1 1 1 1 1 1 1 1 1 1 1 1 1 1 1 1 1 1 1 1 1 1 1 1 1 1 1 1 1 1 1 1 1 1 1 1 1 1 1 1 1 1 1 1 1 1 1 1 1 1 1 1 1 1 1 1 1 1 1 1 1 1 1 1 1 1 1 1 1 1 1 1 1 1 1 1 1 1 1 1 1 1 1 1 1 1 1 1 1 1 1 1 1 1 1 1 1 1 1 1 1 1 1 1 1 1 1 1 1 1 1 1 1 1 1 1 1 1 1 1 1 1 1 1 1 1 1 1 1 1 1 1 1 1 1 1 1 1 1 1 1 1 1 1 1 1 1 1 1 1 1 1 1 1 1 1 1 1 1 1 1 1 1 1 1 1 1 1 1 1 1 1 1 1 1 1 1 1 1 1 1 1 1 1 1 1 1 1 1 1 1 1 1 1 1 1 1 1 1 1 1 1 1 1 1 1 1 1 1 
</DataArray>
<DataArray Name="FiberAngle" format="ascii" type="Float64">
0 0 0 0 0 0 0 0 0 0 0 0 0 0 0 0 0 0 0 0 0 0 0 0 0 0 0 0 0 0 0 0 0 0 0 0 0 0 0 0 0 0 0 0 0 0 0 0 0 0 0 0 0 0 0 0 0 0 0 0 0 0 0 0 0 0 0 0 0 0 0 0 0 0 0 0 0 0 0 0 0 0 0 0 0 0 0 0 0 0 0 0 0 0 0 0 0 0 0 0 0 0 0 0 0 0 0 0 0 0 0 0 0 0 0 0 0 0 0 0 0 0 0 0 0 0 0 0 0 0 0 0 0 0 0 0 0 0 0 0 0 0 0 0 0 0 0 0 0 0 0 0 0 0 0 0 0 0 0 0 0 0 0 0 0 0 0 0 0 0 0 0 0 0 0 0 0 0 0 0 0 0 0 0 0 0 0 0 0 0 0 0 0 0 0 0 0 0 0 0 0 0 0 0 0 0 0 0 0 0 0 0 0 0 0 0 0 0 0 0 0 0 0 0 0 0 0 0 0 0 0 0 
</DataArray>
<DataArray Name="Strain_11" format="ascii" type="Float64">
0.747322 0.758915 0.715824 0.71717 -0.715824 -0.71717 -0.747322 -0.758915 0.765824 0.770241 0.714192 0.713921 -0.714192 -0.713921 -0.765824 -0.770241 0.780212 0.800051 0.710597 0.709624 -0.710597 -0.709624 -0.780212 -0.800051 0.791063 0.753612 0.713609 0.710324 -0.713609 -0.710324 -0.791063 -0.753612 0.630519 0.49142 0.350814 0.210526 0.0701691 -0.0701691 -0.210526 -0.350814 -0.49142 -0.630519 0.629119 0.48777 0.348832 0.209192 0.0697536 -0.0697536 -0.209192 -0.348832 -0.48777 -0.629119 0.626616 0.491188 0.350022 0.210173 0.0700341 -0.0700341 -0.210173 -0.350022 -0.491188 -0.626616 0.626072 0.489709 0.349224 0.209635 0.0698665 -0.0698665 -0.209635 -0.349224 -0.489709 -0.626072 0.621634 0.495329 0.351197 0.211237 0.0703313 -0.0703313 -0.211237 -0.351197 -0.495329 -0.621634 0.619254 0.48831 0.347446 0.208695 0.0695425 -0.0695425 -0.208695 -0.347446 -0.48831 -0.619254 0.62155 0.484846 0.34629 0.207701 0.0692676 -0.0692676 -0.207701 -0.34629 -0.484846 -0.62155 0.626076 0.496941 0.352834 0.212111 0.0706407 -0.0706407 -0.212111 -0.352834 -0.496941 -0.626076 -0.716028 -0.71525 -0.715416 -0.715383 -0.715389 -0.715387 -0.715393 -0.715375 -0.715419 -0.71536 -0.743557 -0.742914 -0.743045 -0.743021 -0.743025 -0.743023 -0.743028 -0.743014 -0.743043 -0.743042 0.743557 0.742914 0.743045 0.743021 0.743025 0.743023 0.743028 0.743014 0.743043 0.743042 0.716028 0.71525 0.715416 0.715383 0.715389 0.715387 0.715393 0.715375 0.715419 0.71536 -0.71243 -0.711988 -0.712062 -0.712053 -0.712054 -0.71205 -0.712067 -0.712002 -0.712229 -0.711486 -0.746066 -0.745675 -0.745735 -0.74573 -0.74573 -0.745727 -0.74574 -0.745691 -0.745859 -0.745341 0.746066 0.745675 0.745735 0.74573 0.74573 0.745727 0.74574 0.745691 0.745859 0.745341 0.71243 0.711988 0.712062 0.712053 0.712054 0.71205 0.712067 0.712002 0.712229 0.711486 -0.717599 -0.716762 -0.716951 -0.71691 -0.716918 -0.71692 -0.716903 -0.716978 -0.716654 -0.718025 -0.738548 -0.737749 -0.737928 -0.73789 -0.737897 -0.737899 -0.737884 -0.737953 -0.73765 -0.738943 0.738548 0.737749 0.737928 0.73789 0.737897 0.737899 0.737884 0.737953 0.73765 0.738943 0.717599 0.716762 0.716951 0.71691 0.716918 0.71692 0.716903 0.716978 0.716654 0.718025 
</DataArray>
<DataArray Name="Strain_22" format="ascii" type="Float64">
0.74788 0.743832 0.728478 0.71196 -0.728478 -0.71196 -0.74788 -0.743832 0.743007 0.741761 0.71894 0.716503 -0.71894 -0.716503 -0.743007 -0.741761 0.741365 0.739277 0.727845 0.717888 -0.727845 -0.717888 -0.741365 -0.739277 0.742627 0.753514 0.713777 0.76122 -0.713777 -0.76122 -0.742627 -0.753514 0.621904 0.483689 0.345484 0.207294 0.0690969 -0.0690969 -0.207294 -0.345484 -0.483689 -0.621904 0.63722 0.495762 0.354068 0.212454 0.0708151 -0.0708151 -0.212454 -0.354068 -0.495762 -0.63722 0.62734 0.487075 0.348093 0.208822 0.069612 -0.069612 -0.208822 -0.348093 -0.487075 -0.62734 0.633522 0.491949 0.351559 0.210905 0.0703055 -0.0703055 -0.210905 -0.351559 -0.491949 -0.633522 0.617346 0.477683 0.341736 0.204939 0.0683279 -0.0683279 -0.204939 -0.341736 -0.477683 -0.617346 0.646466 0.500656 0.358066 0.214756 0.0715963 -0.0715963 -0.214756 -0.358066 -0.500656 -0.646466 0.656378 0.50936 0.364031 0.218392 0.0727979 -0.0727979 -0.218392 -0.364031 -0.50936 -0.656378 0.605749 0.469442 0.335651 0.201333 0.0671177 -0.0671177 -0.201333 -0.335651 -0.469442 -0.605749 -0.711402 -0.715351 -0.71447 -0.714659 -0.714618 -0.714634 -0.714603 -0.714699 -0.714428 -0.715029 -0.744271 -0.746004 -0.745701 -0.745739 -0.745738 -0.74574 -0.745728 -0.745758 -0.745738 -0.745376 0.744271 0.746004 0.745701 0.745739 0.745738 0.74574 0.745728 0.745758 0.745738 0.745376 0.711402 0.715351 0.71447 0.714659 0.714618 0.714634 0.714603 0.714699 0.714428 0.715029 -0.713696 -0.715788 -0.715408 -0.715467 -0.715456 -0.715479 -0.715385 -0.715741 -0.714456 -0.718875 -0.743973 -0.745213 -0.745055 -0.745055 -0.745063 -0.745066 -0.745039 -0.745138 -0.744841 -0.745469 0.743973 0.745213 0.745055 0.745055 0.745063 0.745066 0.745039 0.745138 0.744841 0.745469 0.713696 0.715788 0.715408 0.715467 0.715456 0.715479 0.715385 0.715741 0.714456 0.718875 -0.710764 -0.715065 -0.714054 -0.714287 -0.714239 -0.714226 -0.714328 -0.713893 -0.715694 -0.708314 -0.745165 -0.747408 -0.746944 -0.747032 -0.747018 -0.747016 -0.747043 -0.746897 -0.747608 -0.74433 0.745165 0.747408 0.746944 0.747032 0.747018 0.747016 0.747043 0.746897 0.747608 0.74433 0.710764 0.715065 0.714054 0.714287 0.714239 0.714226 0.714328 0.713893 0.715694 0.708314 
</DataArray>
<DataArray Name="Strain_12" format="ascii" type="Float64">
-0.0115363 -0.0246619 -0.027472 -0.0260832 -0.027472 -0.0260832 -0.0115363 -0.0246619 -0.00193212 -0.0138381 -0.00973549 -0.0107253 -0.00973549 -0.0107253 -0.00193212 -0.0138381 -0.0239197 -0.047765 -0.0454342 -0.0536223 -0.0454342 -0.0536223 -0.0239197 -0.047765 0.0823328 0.0380911 0.0922256 0.0840763 0.0922256 0.0840763 0.0823328 0.0380911 0.00350798 0.00161219 0.00201993 0.00193858 0.00195289 0.00195289 0.00193858 0.00201993 0.00161219 0.00350798 0.000394347 0.00229014 0.0018824 0.00196375 0.00194943 0.00194943 0.00196375 0.0018824 0.00229014 0.000394347 0.00273545 6.44281e-05 0.00101649 0.000722546 0.000800955 0.000800955 0.000722546 0.00101649 6.44281e-05 0.00273545 -0.00116019 0.00151083 0.00055877 0.000852717 0.000774308 0.000774308 0.000852717 0.00055877 0.00151083 -0.00116019 0.00862137 0.00181008 0.00432626 0.00353472 0.00374829 0.00374829 0.00353472 0.00432626 0.00181008 0.00862137 -0.00119784 0.00561345 0.00309727 0.00388882 0.00367524 0.00367524 0.00388882 0.00309727 0.00561345 -0.00119784 0.000954784 -0.00863781 -0.00584896 -0.00660525 -0.00642088 -0.00642088 -0.00660525 -0.00584896 -0.00863781 0.000954784 -0.0138559 -0.00426331 -0.00705216 -0.00629587 -0.00648024 -0.00648024 -0.00629587 -0.00705216 -0.00426331 -0.0138559 0.00268774 -0.000814031 0.000228726 -6.07931e-05 1.61531e-05 -8.95242e-06 2.94452e-05 -0.0001409 0.000646189 -0.00281072 -0.00268774 0.000814031 -0.000228726 6.07931e-05 -1.61531e-05 8.95242e-06 -2.94452e-05 0.0001409 -0.000646189 0.00281072 -0.00268774 0.000814031 -0.000228726 6.07931e-05 -1.61531e-05 8.95242e-06 -2.94452e-05 0.0001409 -0.000646189 0.00281072 0.00268774 -0.000814031 0.000228726 -6.07931e-05 1.61531e-05 -8.95242e-06 2.94452e-05 -0.0001409 0.000646189 -0.00281072 0.0035534 -0.000939963 0.000237348 -5.69617e-05 1.22349e-05 -2.85167e-06 1.74785e-05 -0.000135418 0.000797172 -0.00410449 -0.0035534 0.000939963 -0.000237348 5.69617e-05 -1.22349e-05 2.85167e-06 -1.74785e-05 0.000135418 -0.000797171 0.00410449 -0.0035534 0.000939963 -0.000237348 5.69617e-05 -1.22349e-05 2.85167e-06 -1.74785e-05 0.000135418 -0.000797171 0.00410449 0.0035534 -0.000939963 0.000237348 -5.69617e-05 1.22349e-05 -2.85167e-06 1.74785e-05 -0.000135418 0.000797172 -0.00410449 0.00423688 -0.00120176 0.000335381 -9.40533e-05 3.2849e-05 -3.55897e-05 0.00010533 -0.000364579 0.00125195 -0.00418144 -0.00423688 0.00120176 -0.000335381 9.40533e-05 -3.2849e-05 3.55897e-05 -0.00010533 0.000364579 -0.00125195 0.00418144 -0.00423688 0.00120176 -0.000335381 9.40533e-05 -3.2849e-05 3.55897e-05 -0.00010533 0.000364579 -0.00125195 0.00418144 0.00423688 -0.00120176 0.000335381 -9.40533e-05 3.2849e-05 -3.55897e-05 0.00010533 -0.000364579 0.00125195 -0.00418144 
</DataArray>
<DataArray Name="Strain_13" format="ascii" type="Float64">
0 0 0 0 0 0 0 0 0 0 0 0 0 0 0 0 0 0 0 0 0 0 0 0 0 0 0 0 0 0 0 0 0 0 0 0 0 0 0 0 0 0 0 0 0 0 0 0 0 0 0 0 0 0 0 0 0 0 0 0 0 0 0 0 0 0 0 0 0 0 0 0 0 0 0 0 0 0 0 0 0 0 0 0 0 0 0 0 0 0 0 0 0 0 0 0 0 0 0 0 0 0 0 0 0 0 0 0 0 0 0 0 0 0 0 0 0 0 0 0 0 0 0 0 0 0 0 0 0 0 0 0 0 0 0 0 0 0 0 0 0 0 0 0 0 0 0 0 0 0 0 0 0 0 0 0 0 0 0 0 0 0 0 0 0 0 0 0 0 0 0 0 0 0 0 0 0 0 0 0 0 0 0 0 0 0 0 0 0 0 0 0 0 0 0 0 0 0 0 0 0 0 0 0 0 0 0 0 0 0 0 0 0 0 0 0 0 0 0 0 0 0 0 0 0 0 0 0 0 0 0 0 
</DataArray>
<DataArray Name="Strain_23" format="ascii" type="Float64">
0 0 0 0 0 0 0 0 0 0 0 0 0 0 0 0 0 0 0 0 0 0 0 0 0 0 0 0 0 0 0 0 0 0 0 0 0 0 0 0 0 0 0 0 0 0 0 0 0 0 0 0 0 0 0 0 0 0 0 0 0 0 0 0 0 0 0 0 0 0 0 0 0 0 0 0 0 0 0 0 0 0 0 0 0 0 0 0 0 0 0 0 0 0 0 0 0 0 0 0 0 0 0 0 0 0 0 0 0 0 0 0 0 0 0 0 0 0 0 0 0 0 0 0 0 0 0 0 0 0 0 0 0 0 0 0 0 0 0 0 0 0 0 0 0 0 0 0 0 0 0 0 0 0 0 0 0 0 0 0 0 0 0 0 0 0 0 0 0 0 0 0 0 0 0 0 0 0 0 0 0 0 0 0 0 0 0 0 0 0 0 0 0 0 0 0 0 0 0 0 0 0 0 0 0 0 0 0 0 0 0 0 0 0 0 0 0 0 0 0 0 0 0 0 0 0 0 0 0 0 0 0 
</DataArray>
<DataArray Name="Strain_33" format="ascii" type="Float64">
-0.1225 -0.1225 -0.1175 -0.1175 0.1175 0.1175 0.1225 0.1225 -0.1225 -0.1225 -0.1175 -0.1175 0.1175 0.1175 0.1225 0.1225 -0.1225 -0.1225 -0.1175 -0.1175 0.1175 0.1175 0.1225 0.1225 -0.1225 -0.1225 -0.1175 -0.1175 0.1175 0.1175 0.1225 0.1225 -0.1035 -0.0805 -0.0575 -0.0345 -0.0115 0.0115 0.0345 0.0575 0.0805 0.1035 -0.1035 -0.0805 -0.0575 -0.0345 -0.0115 0.0115 0.0345 0.0575 0.0805 0.1035 -0.1035 -0.0805 -0.0575 -0.0345 -0.0115 0.0115 0.0345 0.0575 0.0805 0.1035 -0.1035 -0.0805 -0.0575 -0.0345 -0.0115 0.0115 0.0345 0.0575 0.0805 0.1035 -0.1035 -0.0805 -0.0575 -0.0345 -0.0115 0.0115 0.0345 0.0575 0.0805 0.1035 -0.1035 -0.0805 -0.0575 -0.0345 -0.0115 0.0115 0.0345 0.0575 0.0805 0.1035 -0.1035 -0.0805 -0.0575 -0.0345 -0.0115 0.0115 0.0345 0.0575 0.0805 0.1035 -0.1035 -0.0805 -0.0575 -0.0345 -0.0115 0.0115 0.0345 0.0575 0.0805 0.1035 0.1175 0.1175 0.1175 0.1175 0.1175 0.1175 0.1175 0.1175 0.1175 0.1175 0.1225 0.1225 0.1225 0.1225 0.1225 0.1225 0.1225 0.1225 0.1225 0.1225 -0.1225 -0.1225 -0.1225 -0.1225 -0.1225 -0.1225 -0.1225 -0.1225 -0.1225 -0.1225 -0.1175 -0.1175 -0.1175 -0.1175 -0.1175 -0.1175 -0.1175 -0.1175 -0.1175 -0.1175 0.1175 0.1175 0.1175 0.1175 0.1175 0.1175 0.1175 0.1175 0.1175 0.1175 0.1225 0.1225 0.1225 0.1225 0.1225 0.1225 0.1225 0.1225 0.1225 0.1225 -0.1225 -0.1225 -0.1225 -0.1225 -0.1225 -0.1225 -0.1225 -0.1225 -0.1225 -0.1225 -0.1175 -0.1175 -0.1175 -0.1175 -0.1175 -0.1175 -0.1175 -0.1175 -0.1175 -0.1175 0.1175 0.1175 0.1175 0.1175 0.1175 0.1175 0.1175 0.1175 0.1175 0.1175 0.1225 0.1225 0.1225 0.1225 0.1225 0.1225 0.1225 0.1225 0.1225 0.1225 -0.1225 -0.1225 -0.1225 -0.1225 -0.1225 -0.1225 -0.1225 -0.1225 -0.1225 -0.1225 -0.1175 -0.1175 -0.1175 -0.1175 -0.1175 -0.1175 -0.1175 -0.1175 -0.1175 -0.1175 
</DataArray>
<DataArray Name="Stress_11" format="ascii" type="Float64">
100.407 101.583 96.5076 96.1983 -96.5076 -96.1983 -100.407 -101.583 102.328 102.784 96.0614 95.9635 -96.0614 -95.9635 -102.328 -102.784 103.881 106.027 95.9092 95.5245 -95.9092 -95.5245 -103.881 -106.027 105.122 101.263 95.8531 96.8059 -95.8531 -96.8059 -105.122 -101.263 84.4578 65.8019 46.9789 28.1916 9.39648 -9.39648 -28.1916 -46.9789 -65.8019 -84.4578 84.7277 65.7317 46.9971 28.1868 9.39804 -9.39804 -28.1868 -46.9971 -65.7317 -84.7277 84.1751 65.8702 46.9634 28.1948 9.39579 -9.39579 -28.1948 -46.9634 -65.8702 -84.1751 84.2864 65.8413 46.971 28.1929 9.39643 -9.39643 -28.1929 -46.971 -65.8413 -84.2864 83.3439 66.0694 46.9173 28.2052 9.39314 -9.39314 -28.2052 -46.9173 -66.0694 -83.3439 83.8883 65.9277 46.9542 28.1955 9.39629 -9.39629 -28.1955 -46.9542 -65.9277 -83.8883 84.4189 65.7845 46.9915 28.186 9.39912 -9.39912 -28.186 -46.9915 -65.7845 -84.4189 83.5154 66.0196 46.9302 28.2022 9.3939 -9.3939 -28.2022 -46.9302 -66.0196 -83.5154 -96.056 -96.0792 -96.0732 -96.0748 -96.0743 -96.0745 -96.0743 -96.075 -96.0723 -96.0825 -99.8889 -99.8656 -99.8717 -99.8701 -99.8705 -99.8703 -99.8705 -99.8699 -99.8725 -99.8624 99.8889 99.8656 99.8717 99.8701 99.8705 99.8703 99.8705 99.8699 99.8725 99.8624 96.056 96.0792 96.0732 96.0748 96.0743 96.0745 96.0743 96.075 96.0723 96.0825 -95.7199 -95.7289 -95.7265 -95.7271 -95.7269 -95.7272 -95.7264 -95.7292 -95.7187 -95.7589 -100.159 -100.15 -100.153 -100.152 -100.152 -100.152 -100.153 -100.15 -100.16 -100.12 100.159 100.15 100.153 100.152 100.152 100.152 100.153 100.15 100.16 100.12 95.7199 95.7289 95.7265 95.7271 95.7269 95.7272 95.7264 95.7292 95.7187 95.7589 -96.2128 -96.2392 -96.2322 -96.234 -96.2336 -96.2335 -96.2344 -96.2307 -96.2447 -96.1921 -99.3571 -99.3307 -99.3377 -99.3359 -99.3363 -99.3364 -99.3355 -99.3392 -99.3252 -99.3778 99.3571 99.3307 99.3377 99.3359 99.3363 99.3364 99.3355 99.3392 99.3252 99.3778 96.2128 96.2392 96.2322 96.234 96.2336 96.2335 96.2344 96.2307 96.2447 96.1921 
</DataArray>
<DataArray Name="Stress_22" format="ascii" type="Float64">
100.454 100.326 97.5621 95.7642 -97.5621 -95.7642 -100.454 -100.326 100.426 100.411 96.457 96.1787 -96.457 -96.1787 -100.426 -100.411 100.644 100.963 97.3465 96.2133 -97.3465 -96.2133 -100.644 -100.963 101.085 101.255 95.8671 101.047 -95.8671 -101.047 -101.085 -101.255 83.7399 65.1576 46.5347 27.9223 9.30713 -9.30713 -27.9223 -46.5347 -65.1576 -83.7399 85.4028 66.3978 47.4335 28.4586 9.4865 -9.4865 -28.4586 -47.4335 -66.3978 -85.4028 84.2355 65.5275 46.8026 28.0822 9.36061 -9.36061 -28.0822 -46.8026 -65.5275 -84.2355 84.9072 66.0279 47.1655 28.2987 9.43302 -9.43302 -28.2987 -47.1655 -66.0279 -84.9072 82.9867 64.5989 46.1289 27.6804 9.22619 -9.22619 -27.6804 -46.1289 -64.5989 -82.9867 86.156 66.9565 47.8392 28.7005 9.56744 -9.56744 -28.7005 -47.8392 -66.9565 -86.156 87.3212 67.8274 48.4699 29.0769 9.69331 -9.69331 -29.0769 -48.4699 -67.8274 -87.3212 81.8214 63.7281 45.4982 27.304 9.10032 -9.10032 -27.304 -45.4982 -63.7281 -81.8214 -95.6704 -96.0876 -95.9943 -96.0144 -96.0101 -96.0118 -96.0085 -96.0186 -95.9897 -96.0549 -99.9484 -100.123 -100.093 -100.097 -100.097 -100.097 -100.096 -100.098 -100.097 -100.057 99.9484 100.123 100.093 100.097 100.097 100.097 100.096 100.098 100.097 100.057 95.6704 96.0876 95.9943 96.0144 96.0101 96.0118 96.0085 96.0186 95.9897 96.0549 -95.8254 -96.0456 -96.0054 -96.0117 -96.0104 -96.013 -96.0029 -96.0407 -95.9043 -96.3746 -99.9849 -100.112 -100.096 -100.096 -100.097 -100.097 -100.094 -100.104 -100.076 -100.131 99.9849 100.112 100.096 100.096 100.097 100.097 100.094 100.104 100.076 100.131 95.8254 96.0456 96.0054 96.0117 96.0104 96.013 96.0029 96.0407 95.9043 96.3746 -95.6432 -96.0978 -95.9908 -96.0154 -96.0104 -96.009 -96.0199 -95.9736 -96.1647 -95.3828 -99.9085 -100.136 -100.089 -100.098 -100.096 -100.096 -100.099 -100.084 -100.155 -99.8267 99.9085 100.136 100.089 100.098 100.096 100.096 100.099 100.084 100.155 99.8267 95.6432 96.0978 95.9908 96.0154 96.0104 96.009 96.0199 95.9736 96.1647 95.3828 
</DataArray>
<DataArray Name="Stress_12" format="ascii" type="Float64">
-0.480682 -1.02759 -1.14468 -1.08681 -1.14468 -1.08681 -0.480682 -1.02759 -0.0805058 -0.576593 -0.405649 -0.446891 -0.405649 -0.446891 -0.0805058 -0.576593 -0.996664 -1.99022 -1.89311 -2.23428 -1.89311 -2.23428 -0.996664 -1.99022 3.43056 1.58714 3.84276 3.50321 3.84276 3.50321 3.43056 1.58714 0.146167 0.0671749 0.0841643 0.0807747 0.0813712 0.0813712 0.0807747 0.0841643 0.0671749 0.146167 0.0164313 0.0954232 0.0784338 0.0818234 0.0812269 0.0812269 0.0818234 0.0784338 0.0954232 0.0164313 0.113978 0.00268453 0.0423542 0.0301063 0.0333734 0.0333734 0.0301063 0.0423542 0.00268453 0.113978 -0.0483417 0.0629519 0.0232823 0.0355301 0.0322631 0.0322631 0.0355301 0.0232823 0.0629519 -0.0483417 0.359227 0.0754207 0.180262 0.147281 0.15618 0.15618 0.147281 0.180262 0.0754207 0.359227 -0.0499104 0.233896 0.129054 0.162035 0.153136 0.153136 0.162035 0.129054 0.233896 -0.0499104 0.039783 -0.359912 -0.243709 -0.275221 -0.267539 -0.267539 -0.275221 -0.243709 -0.359912 0.039783 -0.577334 -0.177639 -0.293842 -0.26233 -0.270012 -0.270012 -0.26233 -0.293842 -0.177639 -0.577334 0.11199 -0.0339182 0.00953031 -0.00253307 0.000673052 -0.00037302 0.00122689 -0.00587089 0.0269248 -0.117114 -0.11199 0.0339182 -0.00953031 0.00253307 -0.000673052 0.00037302 -0.00122689 0.00587089 -0.0269248 0.117114 -0.11199 0.0339182 -0.00953031 0.00253307 -0.000673052 0.00037302 -0.00122689 0.00587089 -0.0269248 0.117114 0.11199 -0.0339182 0.00953031 -0.00253307 0.000673052 -0.00037302 0.00122689 -0.00587089 0.0269248 -0.117114 0.148059 -0.0391655 0.0098896 -0.00237342 0.00050979 -0.000118821 0.000728278 -0.00564245 0.0332157 -0.171022 -0.148059 0.0391655 -0.0098896 0.00237342 -0.00050979 0.000118821 -0.000728278 0.00564245 -0.0332157 0.171022 -0.148059 0.0391655 -0.0098896 0.00237342 -0.00050979 0.000118821 -0.000728278 0.00564245 -0.0332157 0.171022 0.148059 -0.0391655 0.0098896 -0.00237342 0.00050979 -0.000118821 0.000728278 -0.00564245 0.0332157 -0.171022 0.176538 -0.0500739 0.0139743 -0.00391892 0.00136872 -0.00148292 0.00438878 -0.0151909 0.0521648 -0.174228 -0.176538 0.0500739 -0.0139743 0.00391892 -0.00136872 0.00148292 -0.00438878 0.0151909 -0.0521648 0.174228 -0.176538 0.0500739 -0.0139743 0.00391892 -0.00136872 0.00148292 -0.00438878 0.0151909 -0.0521648 0.174228 0.176538 -0.0500739 0.0139743 -0.00391892 0.00136872 -0.00148292 0.00438878 -0.0151909 0.0521648 -0.174228 
</DataArray>
<DataArray Name="Stress_13" format="ascii" type="Float64">
0 0 0 0 0 0 0 0 0 0 0 0 0 0 0 0 0 0 0 0 0 0 0 0 0 0 0 0 0 0 0 0 0 0 0 0 0 0 0 0 0 0 0 0 0 0 0 0 0 0 0 0 0 0 0 0 0 0 0 0 0 0 0 0 0 0 0 0 0 0 0 0 0 0 0 0 0 0 0 0 0 0 0 0 0 0 0 0 0 0 0 0 0 0 0 0 0 0 0 0 0 0 0 0 0 0 0 0 0 0 0 0 0 0 0 0 0 0 0 0 0 0 0 0 0 0 0 0 0 0 0 0 0 0 0 0 0 0 0 0 0 0 0 0 0 0 0 0 0 0 0 0 0 0 0 0 0 0 0 0 0 0 0 0 0 0 0 0 0 0 0 0 0 0 0 0 0 0 0 0 0 0 0 0 0 0 0 0 0 0 0 0 0 0 0 0 0 0 0 0 0 0 0 0 0 0 0 0 0 0 0 0 0 0 0 0 0 0 0 0 0 0 0 0 0 0 0 0 0 0 0 0 
</DataArray>
<DataArray Name="Stress_23" format="ascii" type="Float64">
0 0 0 0 0 0 0 0 0 0 0 0 0 0 0 0 0 0 0 0 0 0 0 0 0 0 0 0 0 0 0 0 0 0 0 0 0 0 0 0 0 0 0 0 0 0 0 0 0 0 0 0 0 0 0 0 0 0 0 0 0 0 0 0 0 0 0 0 0 0 0 0 0 0 0 0 0 0 0 0 0 0 0 0 0 0 0 0 0 0 0 0 0 0 0 0 0 0 0 0 0 0 0 0 0 0 0 0 0 0 0 0 0 0 0 0 0 0 0 0 0 0 0 0 0 0 0 0 0 0 0 0 0 0 0 0 0 0 0 0 0 0 0 0 0 0 0 0 0 0 0 0 0 0 0 0 0 0 0 0 0 0 0 0 0 0 0 0 0 0 0 0 0 0 0 0 0 0 0 0 0 0 0 0 0 0 0 0 0 0 0 0 0 0 0 0 0 0 0 0 0 0 0 0 0 0 0 0 0 0 0 0 0 0 0 0 0 0 0 0 0 0 0 0 0 0 0 0 0 0 0 0 
</DataArray>
<DataArray Name="Stress_33" format="ascii" type="Float64">
27.9223 28.1319 27.0639 26.6425 -27.0639 -26.6425 -27.9223 -28.1319 28.3009 28.389 26.7537 26.6784 -26.7537 -26.6784 -28.3009 -28.389 28.6549 29.148 26.9012 26.5976 -26.9012 -26.5976 -28.6549 -29.148 28.9914 28.2535 26.5941 27.8206 -26.5941 -27.8206 -28.9914 -28.2535 23.2895 18.1419 12.9527 7.77278 2.59072 -2.59072 -7.77278 -12.9527 -18.1419 -23.2895 23.6761 18.3759 13.1361 7.87907 2.62691 -2.62691 -7.87907 -13.1361 -18.3759 -23.6761 23.3321 18.2295 13.0032 7.80541 2.60128 -2.60128 -7.80541 -13.0032 -18.2295 -23.3321 23.4887 18.3238 13.0773 7.84831 2.61589 -2.61589 -7.84831 -13.0773 -18.3238 -23.4887 22.9161 18.0837 12.8593 7.72712 2.57387 -2.57387 -7.72712 -12.8593 -18.0837 -22.9161 23.6589 18.5268 13.2087 7.92919 2.64275 -2.64275 -7.92919 -13.2087 -18.5268 -23.6589 23.998 18.6724 13.3423 8.00257 2.66849 -2.66849 -8.00257 -13.3423 -18.6724 -23.998 22.7174 17.8995 12.7357 7.65123 2.54884 -2.54884 -7.65123 -12.7357 -17.8995 -22.7174 -26.5953 -26.6834 -26.6635 -26.6678 -26.6669 -26.6673 -26.6666 -26.6687 -26.6624 -26.6775 -27.7174 -27.7477 -27.7429 -27.7433 -27.7434 -27.7434 -27.7432 -27.7437 -27.7439 -27.7339 27.7174 27.7477 27.7429 27.7433 27.7434 27.7434 27.7432 27.7437 27.7439 27.7339 26.5953 26.6834 26.6635 26.6678 26.6669 26.6673 26.6666 26.6687 26.6624 26.6775 -26.5591 -26.6049 -26.5964 -26.5978 -26.5975 -26.598 -26.5959 -26.604 -26.5746 -26.6767 -27.7789 -27.8024 -27.7997 -27.7996 -27.7998 -27.7998 -27.7994 -27.8008 -27.7972 -27.8003 27.7789 27.8024 27.7997 27.7996 27.7998 27.7998 27.7994 27.8008 27.7972 27.8003 26.5591 26.6049 26.5964 26.5978 26.5975 26.598 26.5959 26.604 26.5746 26.6767 -26.6212 -26.7174 -26.6946 -26.6999 -26.6988 -26.6985 -26.7009 -26.6909 -26.7319 -26.565 -27.6031 -27.6432 -27.6353 -27.6367 -27.6365 -27.6365 -27.6368 -27.6347 -27.646 -27.5909 27.6031 27.6432 27.6353 27.6367 27.6365 27.6365 27.6368 27.6347 27.646 27.5909 26.6212 26.7174 26.6946 26.6999 26.6988 26.6985 26.7009 26.6909 26.7319 26.565 
</DataArray>
</CellData>
<Points>
<DataArray NumberOfComponents="3" format="ascii" type="Float64">