<?xml version="1.0"?>
<VTKFile byte_order="LittleEndian" type="UnstructuredGrid" version="0.1">
<UnstructuredGrid>
<Piece NumberOfCells="232" NumberOfPoints="342">
<PointData>
<DataArray Name="Warping_X" format="ascii" type="Float64">
0 0 0 0 0 0 0 0 0 0 0 0 0 0 0 0 0 0 0 0 0 0 0 0 0 0 0 0 0 0 0 0 0 0 0 0 0 0 0 0 0 0 0 0 0 0 0 0 0 0 0 0 0 0 0 0 0 0 0 0 0 0 0 0 0 0 0 0 0 0 0 0 0 0 0 0 0 0 0 -0 0 0 0 0 0 0 0 0 -0 0 0 0 0 0 0 0 0 0 0 0 0 0 0 0 0 0 0 0 0 0 0 0 0 0 0 0 0 0 0 0 0 0 0 0 0 0 0 0 0 0 0 0 0 0 0 0 0 0 0 -0 0 0 0 0 0 0 0 0 0 0 0 0 0 0 0 0 0 -0 0 0 0 0 0 0 0 0 -0 0 0 0 0 0 0 0 0 0 0 0 0 0 0 0 0 0 0 0 0 0 0 0 0 0 0 0 0 0 0 0 0 0 0 0 0 0 0 0 0 0 0 0 0 0 0 0 0 0 0 0 0 0 0 0 0 0 0 0 0 0 0 0 0 0 0 0 0 0 0 0 0 0 0 0 0 0 0 0 0 0 0 0 0 0 0 0 0 0 0 0 0 0 0 0 0 0 0 0 0 0 0 0 0 0 0 0 0 0 0 0 0 0 0 0 0 0 0 0 0 0 0 0 0 0 0 0 0 0 0 0 0 0 0 0 0 0 0 0 0 0 0 0 0 0 0 0 0 0 0 0 0 0 0 0 0 0 0 0 0 0 0 0 0 0 0 0 0 0 0 0 0 0 0 0 
</DataArray>
<DataArray Name="Warping_Y" format="ascii" type="Float64">
0 0 0 0 0 0 0 0 0 0 0 0 0 0 0 0 0 0 0 0 0 0 0 0 0 0 0 0 0 0 0 0 0 0 0 0 0 0 0 0 0 0 0 0 0 0 0 0 0 0 0 0 0 0 0 0 0 0 0 0 0 0 0 0 0 0 0 0 0 0 0 0 0 0 0 0 0 0 0 0 0 0 0 0 0 0 0 0 0 0 0 0 0 0 0 0 0 0 0 0 0 0 0 0 0 0 0 0 0 0 0 0 0 0 0 0 0 0 0 0 0 0 0 0 0 0 0 0 0 0 0 0 0 0 0 0 0 0 0 0 0 0 0 0 0 0 0 0 0 0 0 0 0 0 0 0 0 0 0 0 0 0 0 0 0 0 0 0 0 0 0 0 0 0 0 0 0 0 0 0 0 0 0 0 0 0 0 0 0 0 0 0 0 0 0 0 0 0 0 0 0 0 0 0 0 0 0 0 0 0 -0 0 0 0 0 0 0 0 0 -0 0 0 0 0 0 0 0 0 0 0 0 0 0 0 0 0 -0 0 0 0 0 0 0 0 0 -0 0 0 0 0 0 0 0 0 0 0 0 0 0 0 0 0 0 0 0 0 0 -0 0 0 0 0 0 0 0 0 -0 0 0 0 0 0 0 0 0 0 0 0 0 0 0 0 0 0 0 0 0 0 0 0 0 0 0 0 0 0 0 0 0 0 0 0 0 0 0 0 0 0 0 0 0 0 0 0 0 0 0 0 0 0 0 0 0 0 0 0 0 0 0 0 0 0 
</DataArray>
<DataArray Name="Warping_Z" format="ascii" type="Float64">
0 0 0 0 0 0 0 0 0 0 0 0 0 0 0 0 0 0 0 0 0 0 0 0 0 0 0 0 0 0 0 0 0 0 0 0 0 0 0 0 0 0 0 0 0 0 0 0 0 0 0 0 0 0 0 0 0 0 0 0 0 0 0 0 0 0 0 0 0 0 0 0 0 0 0 0 0 0 0 0 0 0 0 0 0 0 0 0 0 0 0 0 0 0 0 0 0 0 0 0 0 0 0 0 0 0 0 0 0 0 0 0 0 0 0 0 0 0 0 0 0 0 0 0 0 0 0 0 0 0 0 0 0 0 0 0 0 0 0 0 0 0 0 0 0 0 0 0 0 0 0 0 0 0 0 0 0 0 0 0 0 0 0 0 0 0 0 0 0 0 0 0 0 0 0 0 0 0 0 0 0 0 0 0 0 0 0 0 0 0 0 0 0 0 0 0 0 0 0 0 0 0 0 0 0 0 0 0 0 0 0 0 0 0 0 0 0 0 0 0 0 0 0 0 0 0 0 0 0 0 0 0 0 0 0 0 0 0 0 0 0 0 0 0 0 0 0 0 0 0 0 0 0 0 0 0 0 0 0 0 0 0 0 0 0 0 0 0 0 0 0 0 0 0 0 0 0 0 0 0 0 0 0 0 0 0 0 0 0 0 0 0 0 0 0 0 0 0 0 0 0 0 0 0 0 0 0 0 0 0 0 0 0 0 0 0 0 0 0 0 0 0 0 0 0 0 0 0 0 0 0 0 0 0 0 0 0 0 0 0 0 0 
</DataArray>
</PointData>
<CellData>
<DataArray Name="MaterialId" format="ascii" type="Float64">
1 1 1 1 1 1 1 1 1 1 1 1 1 1 1 1 1 1 1 1 1 1 1 1 1 1 1 1 1 1 1 1 1 1 1 1 1 1 1 1 1 1 1 1 1 1 1 1 1 1 1 1 1 1 1 1 1 1 1 1 1 1 1 1 1 1 1 1 1 1 1 1 1 1 1 1 1 1 1 1 1 1 1 1 1 1 1 1 1 1 1 1 1 1 1 1 1 1 1 1 1 1 1 1 1 1 1 1 1 1 1 1 1 1 1 1 1 1 1 1 1 1 1 1 1 1 1 1 1 1 1 1 1 1 1 1 1 1 1 1 1 1 1 1 1 1 1 1 1 1 1 1 1 1 1 1 1 1 1 1 1 1 1 1 1 1 1 1 1 1 1 1 1 1 1 1 1 1 1 1 1 1 1 1 1 1 1 1 1 1 1 1 1 1 1 1 1 1 1 1 1 1 1 1 1 1 1 1 1 1 1 1 1 1 1 1 1 1 1 1 1 1 1 1 1 1 1 1 1 1 1 1 
</DataArray>
<DataArray Name="FiberAngle" format="ascii" type="Float64">
0 0 0 0 0 0 0 0 0 0 0 0 0 0 0 0 0 0 0 0 0 0 0 0 0 0 0 0 0 0 0 0 0 0 0 0 0 0 0 0 0 0 0 0 0 0 0 0 0 0 0 0 0 0 0 0 0 0 0 0 0 0 0 0 0 0 0 0 0 0 0 0 0 0 0 0 0 0 0 0 0 0 0 0 0 0 0 0 0 0 0 0 0 0 0 0 0 0 0 0 0 0 0 0 0 0 0 0 0 0 0 0 0 0 0 0 0 0 0 0 0 0 0 0 0 0 0 0 0 0 0 0 0 0 0 0 0 0 0 0 0 0 0 0 0 0 0 0 0 0 0 0 0 0 0 0 0 0 0 0 0 0 0 0 0 0 0 0 0 0 0 0 0 0 0 0 0 0 0 0 0 0 0 0 0 0 0 0 0 0 0 0 0 0 0 0 0 0 0 0 0 0 0 0 0 0 0 0 0 0 0 0 0 0 0 0 0 0 0 0 0 0 0 0 0 0 0 0 0 0 0 0 
</DataArray>
<DataArray Name="Strain_11" format="ascii" type="Float64">
0 0 0 0 0 0 0 0 0 0 0 0 0 0 0 0 0 0 0 0 0 0 0 0 0 0 0 0 0 0 0 0 0 0 0 0 0 0 0 0 0 0 0 0 0 0 0 0 0 0 0 0 0 0 0 0 0 0 0 0 0 0 0 0 0 0 0 0 0 0 0 0 0 0 0 0 0 0 0 0 0 0 0 0 0 0 0 0 0 0 0 0 0 0 0 0 0 0 0 0 0 0 0 0 0 0 0 0 0 0 0 0 0 0 0 0 0 0 0 0 0 0 0 0 0 0 0 0 0 0 0 0 0 0 0 0 0 0 0 0 0 0 0 0 0 0 0 0 0 0 0 0 0 0 0 0 0 0 0 0 0 0 0 0 0 0 0 0 0 0 0 0 0 0 0 0 0 0 0 0 0 0 0 0 0 0 0 0 0 0 0 0 0 0 0 0 0 0 0 0 0 0 0 0 0 0 0 0 0 0 0 0 0 0 0 0 0 0 0 0 0 0 0 0 0 0 0 0 0 0 0 0 
</DataArray>
<DataArray Name="Strain_22" format="ascii" type="Float64">
0 0 0 0 0 0 0 0 0 0 0 0 0 0 0 0 0 0 0 0 0 0 0 0 0 0 0 0 0 0 0 0 0 0 0 0 0 0 0 0 0 0 0 0 0 0 0 0 0 0 0 0 0 0 0 0 0 0 0 0 0 0 0 0 0 0 0 0 0 0 0 0 0 0 0 0 0 0 0 0 0 0 0 0 0 0 0 0 0 0 0 0 0 0 0 0 0 0 0 0 0 0 0 0 0 0 0 0 0 0 0 0 0 0 0 0 0 0 0 0 0 0 0 0 0 0 0 0 0 0 0 0 0 0 0 0 0 0 0 0 0 0 0 0 0 0 0 0 0 0 0 0 0 0 0 0 0 0 0 0 0 0 0 0 0 0 0 0 0 0 0 0 0 0 0 0 0 0 0 0 0 0 0 0 0 0 0 0 0 0 0 0 0 0 0 0 0 0 0 0 0 0 0 0 0 0 0 0 0 0 0 0 0 0 0 0 0 0 0 0 0 0 0 0 0 0 0 0 0 0 0 0 
</DataArray>
<DataArray Name="Strain_12" format="ascii" type="Float64">
0 0 0 0 0 0 0 0 0 0 0 0 0 0 0 0 0 0 0 0 0 0 0 0 0 0 0 0 0 0 0 0 0 0 0 0 0 0 0 0 0 0 0 0 0 0 0 0 0 0 0 0 0 0 0 0 0 0 0 0 0 0 0 0 0 0 0 0 0 0 0 0 0 0 0 0 0 0 0 0 0 0 0 0 0 0 0 0 0 0 0 0 0 0 0 0 0 0 0 0 0 0 0 0 0 0 0 0 0 0 0 0 0 0 0 0 0 0 0 0 0 0 0 0 0 0 0 0 0 0 0 0 0 0 0 0 0 0 0 0 0 0 0 0 0 0 0 0 0 0 0 0 0 0 0 0 0 0 0 0 0 0 0 0 0 0 0 0 0 0 0 0 0 0 0 0 0 0 0 0 0 0 0 0 0 0 0 0 0 0 0 0 0 0 0 0 0 0 0 0 0 0 0 0 0 0 0 0 0 0 0 0 0 0 0 0 0 0 0 0 0 0 0 0 0 0 0 0 0 0 0 0 
</DataArray>
<DataArray Name="Strain_13" format="ascii" type="Float64">
-2.24756 -0.8679 -2.22694 -0.887705 2.22694 0.887705 2.24756 0.8679 0.832267 1.03563 -0.0756412 0.216799 0.0756412 -0.216799 -0.832267 -1.03563 1.12283 0.917176 0.299573 0.153535 -0.299573 -0.153535 -1.12283 -0.917176 -0.972982 -2.24602 -0.663694 -2.14776 0.663694 2.14776 0.972982 2.24602 -1.79667 -2.14537 -1.36585 -0.854596 -0.278541 0.278541 0.854596 1.36585 2.14537 1.79667 -2.28786 -2.01903 -1.39837 -0.846096 -0.281243 0.281243 0.846096 1.39837 2.01903 2.28786 -1.59997 -2.18481 -1.35824 -0.855978 -0.278289 0.278289 0.855978 1.35824 2.18481 1.59997 -1.73831 -2.14923 -1.3674 -0.853584 -0.27905 0.27905 0.853584 1.3674 2.14923 1.73831 -1.59735 -2.18296 -1.35929 -0.855566 -0.278462 0.278462 0.855566 1.35929 2.18296 1.59735 -1.5722 -2.18943 -1.35762 -0.856001 -0.278324 0.278324 0.856001 1.35762 2.18943 1.5722 -2.23661 -2.02855 -1.39676 -0.846321 -0.281234 0.281234 0.846321 1.39676 2.02855 2.23661 -1.6033 -2.19145 -1.35481 -0.857279 -0.277749 0.277749 0.857279 1.35481 2.19145 1.6033 -1.67636 -1.47495 -1.52105 -1.51051 -1.51287 -1.51256 -1.51164 -1.51618 -1.49623 -1.58339 -1.48097 -1.68238 -1.63627 -1.64682 -1.64445 -1.64477 -1.64569 -1.64115 -1.66109 -1.57394 1.48097 1.68238 1.63627 1.64682 1.64445 1.64477 1.64569 1.64115 1.66109 1.57394 1.67636 1.47495 1.52105 1.51051 1.51287 1.51256 1.51164 1.51618 1.49623 1.58339 -2.63227 -2.48727 -2.52067 -2.513 -2.51468 -2.51466 -2.51306 -2.52038 -2.48853 -2.62678 -2.52896 -2.67397 -2.64056 -2.64824 -2.64655 -2.64657 -2.64817 -2.64085 -2.6727 -2.53445 2.52896 2.67397 2.64056 2.64824 2.64655 2.64657 2.64817 2.64085 2.6727 2.53445 2.63227 2.48727 2.52067 2.513 2.51468 2.51466 2.51306 2.52038 2.48853 2.62678 -2.09961 -2.06325 -2.07264 -2.07023 -2.07078 -2.07094 -2.06972 -2.07461 -2.05561 -2.1292 -2.17422 -2.21057 -2.20118 -2.20359 -2.20305 -2.20288 -2.20411 -2.19921 -2.21821 -2.14462 2.17422 2.21057 2.20118 2.20359 2.20305 2.20288 2.20411 2.19921 2.21821 2.14462 2.09961 2.06325 2.07264 2.07023 2.07078 2.07094 2.06972 2.07461 2.05561 2.1292 
</DataArray>
<DataArray Name="Strain_23" format="ascii" type="Float64">
9.56118 9.54426 8.17673 8.21447 8.17673 8.21447 9.56118 9.54426 4.36469 3.94443 4.57355 3.28708 4.57355 3.28708 4.36469 3.94443 -1.56718 -1.97243 -0.980784 -2.14244 -0.980784 -2.14244 -1.56718 -1.97243 -13.3733 -13.3135 -12.2258 -11.858 -12.2258 -11.858 -13.3733 -13.3135 5.63093 5.83913 5.7918 5.80253 5.80022 5.80022 5.80253 5.7918 5.83913 5.63093 5.83781 5.62961 5.67693 5.6662 5.66852 5.66852 5.6662 5.67693 5.62961 5.83781 3.01899 3.38531 3.30205 3.32093 3.31685 3.31685 3.32093 3.30205 3.38531 3.01899 3.48355 3.11722 3.20049 3.18161 3.18569 3.18569 3.18161 3.20049 3.11722 3.48355 -1.6841 -1.28202 -1.37341 -1.35269 -1.35717 -1.35717 -1.35269 -1.37341 -1.28202 -1.6841 -1.16128 -1.56336 -1.47197 -1.49269 -1.48821 -1.48821 -1.49269 -1.47197 -1.56336 -1.16128 -9.05459 -8.79455 -8.85366 -8.84026 -8.84315 -8.84315 -8.84026 -8.85366 -8.79455 -9.05459 -8.76324 -9.02327 -8.96417 -8.97757 -8.97467 -8.97467 -8.97757 -8.96417 -9.02327 -8.76324 9.11605 9.43794 8.6486 8.12469 7.53679 6.96592 6.38417 5.83307 5.1582 4.99811 9.5982 9.31372 8.68062 8.11637 7.5392 6.96426 6.38861 5.81634 5.223 4.74665 9.5982 9.31372 8.68062 8.11637 7.5392 6.96426 6.38861 5.81634 5.223 4.74665 9.11605 9.43794 8.6486 8.12469 7.53679 6.96592 6.38417 5.83307 5.1582 4.99811 3.2876 3.38163 2.63028 2.08244 1.48486 0.90191 0.304722 -0.244843 -0.989006 -0.925015 3.67896 3.28063 2.65637 2.0756 1.48702 0.899795 0.311296 -0.269903 -0.892009 -1.30086 3.67896 3.28063 2.65637 2.0756 1.48702 0.899795 0.311296 -0.269903 -0.892009 -1.30086 3.2876 3.38163 2.63028 2.08244 1.48486 0.90191 0.304722 -0.244843 -0.989006 -0.925015 -2.83936 -3.70256 -4.97433 -6.13929 -7.333 -8.51582 -9.71449 -10.8591 -12.2092 -12.7716 -2.65584 -3.75129 -4.96137 -6.14284 -7.33167 -8.51767 -9.70839 -10.8819 -12.1236 -13.094 -2.65584 -3.75129 -4.96137 -6.14284 -7.33167 -8.51767 -9.70839 -10.8819 -12.1236 -13.094 -2.83936 -3.70256 -4.97433 -6.13929 -7.333 -8.51582 -9.71449 -10.8591 -12.2092 -12.7716 
</DataArray>
<DataArray Name="Strain_33" format="ascii" type="Float64">
0 0 0 0 0 0 0 0 0 0 0 0 0 0 0 0 0 0 0 0 0 0 0 0 0 0 0 0 0 0 0 0 0 0 0 0 0 0 0 0 0 0 0 0 0 0 0 0 0 0 0 0 0 0 0 0 0 0 0 0 0 0 0 0 0 0 0 0 0 0 0 0 0 0 0 0 0 0 0 0 0 0 0 0 0 0 0 0 0 0 0 0 0 0 0 0 0 0 0 0 0 0 0 0 0 0 0 0 0 0 0 0 0 0 0 0 0 0 0 0 0 0 0 0 0 0 0 0 0 0 0 0 0 0 0 0 0 0 0 0 0 0 0 0 0 0 0 0 0 0 0 0 0 0 0 0 0 0 0 0 0 0 0 0 0 0 0 0 0 0 0 0 0 0 0 0 0 0 0 0 0 0 0 0 0 0 0 0 0 0 0 0 0 0 0 0 0 0 0 0 0 0 0 0 0 0 0 0 0 0 0 0 0 0 0 0 0 0 0 0 0 0 0 0 0 0 0 0 0 0 0 0 
</DataArray>
<DataArray Name="Stress_11" format="ascii" type="Float64">
0 0 0 0 0 0 0 0 0 0 0 0 0 0 0 0 0 0 0 0 0 0 0 0 0 0 0 0 0 0 0 0 0 0 0 0 0 0 0 0 0 0 0 0 0 0 0 0 0 0 0 0 0 0 0 0 0 0 0 0 0 0 0 0 0 0 0 0 0 0 0 0 0 0 0 0 0 0 0 0 0 0 0 0 0 0 0 0 0 0 0 0 0 0 0 0 0 0 0 0 0 0 0 0 0 0 0 0 0 0 0 0 0 0 0 0 0 0 0 0 0 0 0 0 0 0 0 0 0 0 0 0 0 0 0 0 0 0 0 0 0 0 0 0 0 0 0 0 0 0 0 0 0 0 0 0 0 0 0 0 0 0 0 0 0 0 0 0 0 0 0 0 0 0 0 0 0 0 0 0 0 0 0 0 0 0 0 0 0 0 0 0 0 0 0 0 0 0 0 0 0 0 0 0 0 0 0 0 0 0 0 0 0 0 0 0 0 0 0 0 0 0 0 0 0 0 0 0 0 0 0 0 
</DataArray>
<DataArray Name="Stress_22" format="ascii" type="Float64">
0 0 0 0 0 0 0 0 0 0 0 0 0 0 0 0 0 0 0 0 0 0 0 0 0 0 0 0 0 0 0 0 0 0 0 0 0 0 0 0 0 0 0 0 0 0 0 0 0 0 0 0 0 0 0 0 0 0 0 0 0 0 0 0 0 0 0 0 0 0 0 0 0 0 0 0 0 0 0 0 0 0 0 0 0 0 0 0 0 0 0 0 0 0 0 0 0 0 0 0 0 0 0 0 0 0 0 0 0 0 0 0 0 0 0 0 0 0 0 0 0 0 0 0 0 0 0 0 0 0 0 0 0 0 0 0 0 0 0 0 0 0 0 0 0 0 0 0 0 0 0 0 0 0 0 0 0 0 0 0 0 0 0 0 0 0 0 0 0 0 0 0 0 0 0 0 0 0 0 0 0 0 0 0 0 0 0 0 0 0 0 0 0 0 0 0 0 0 0 0 0 0 0 0 0 0 0 0 0 0 0 0 0 0 0 0 0 0 0 0 0 0 0 0 0 0 0 0 0 0 0 0 
</DataArray>
<DataArray Name="Stress_12" format="ascii" type="Float64">
0 0 0 0 0 0 0 0 0 0 0 0 0 0 0 0 0 0 0 0 0 0 0 0 0 0 0 0 0 0 0 0 0 0 0 0 0 0 0 0 0 0 0 0 0 0 0 0 0 0 0 0 0 0 0 0 0 0 0 0 0 0 0 0 0 0 0 0 0 0 0 0 0 0 0 0 0 0 0 0 0 0 0 0 0 0 0 0 0 0 0 0 0 0 0 0 0 0 0 0 0 0 0 0 0 0 0 0 0 0 0 0 0 0 0 0 0 0 0 0 0 0 0 0 0 0 0 0 0 0 0 0 0 0 0 0 0 0 0 0 0 0 0 0 0 0 0 0 0 0 0 0 0 0 0 0 0 0 0 0 0 0 0 0 0 0 0 0 0 0 0 0 0 0 0 0 0 0 0 0 0 0 0 0 0 0 0 0 0 0 0 0 0 0 0 0 0 0 0 0 0 0 0 0 0 0 0 0 0 0 0 0 0 0 0 0 0 0 0 0 0 0 0 0 0 0 0 0 0 0 0 0 
</DataArray>
<DataArray Name="Stress_13" format="ascii" type="Float64">
-93.6489 -36.1628 -92.7898 -36.988 92.7898 36.988 93.6489 36.1628 34.6781 43.1515 -3.15174 9.03338 3.15174 -9.03338 -34.6781 -43.1515 46.785 38.216 12.4823 6.39734 -12.4823 -6.39734 -46.785 -38.216 -40.5412 -93.5848 -27.6542 -89.4909 27.6542 89.4909 40.5412 93.5848 -74.862 -89.391 -56.9107 -35.6084 -11.606 11.606 35.6084 56.9107 89.391 74.862 -95.3281 -84.1267 -58.2661 -35.2543 -11.7186 11.7186 35.2543 58.2661 84.1267 95.3281 -66.6661 -91.0345 -56.5936 -35.666 -11.5955 11.5955 35.666 56.5936 91.0345 66.6661 -72.4301 -89.5519 -56.9754 -35.5663 -11.6272 11.6272 35.5663 56.9754 89.5519 72.4301 -66.5566 -90.9576 -56.6374 -35.6489 -11.6027 11.6027 35.6489 56.6374 90.9576 66.5566 -65.5088 -91.2271 -56.568 -35.667 -11.5969 11.5969 35.667 56.568 91.2271 65.5088 -93.1927 -84.5237 -58.1987 -35.2636 -11.7182 11.7182 35.2636 58.1987 84.5237 93.1927 -66.8046 -91.3112 -56.4511 -35.7203 -11.573 11.573 35.7203 56.4511 91.3112 66.8046 -69.8488 -61.4568 -63.3777 -62.9385 -63.0369 -63.0238 -62.9855 -63.1746 -62.3436 -65.975 -61.7076 -70.0996 -68.1786 -68.6179 -68.5195 -68.5325 -68.5708 -68.3817 -69.2128 -65.5814 61.7076 70.0996 68.1786 68.6179 68.5195 68.5325 68.5708 68.3817 69.2128 65.5814 69.8488 61.4568 63.3777 62.9385 63.0369 63.0238 62.9855 63.1746 62.3436 65.975 -109.679 -103.637 -105.029 -104.709 -104.779 -104.778 -104.712 -105.017 -103.69 -109.45 -105.374 -111.416 -110.024 -110.344 -110.274 -110.275 -110.341 -110.036 -111.363 -105.603 105.374 111.416 110.024 110.344 110.274 110.275 110.341 110.036 111.363 105.603 109.679 103.637 105.029 104.709 104.779 104.778 104.712 105.017 103.69 109.45 -87.4843 -85.9696 -86.3606 -86.2605 -86.283 -86.2899 -86.2389 -86.4429 -85.6512 -88.7173 -90.593 -92.1077 -91.7168 -91.8169 -91.7943 -91.7874 -91.8385 -91.6344 -92.4262 -89.3601 90.593 92.1077 91.7168 91.8169 91.7943 91.7874 91.8385 91.6344 92.4262 89.3601 87.4843 85.9696 86.3606 86.2605 86.283 86.2899 86.2389 86.4429 85.6512 88.7173 
</DataArray>
<DataArray Name="Stress_23" format="ascii" type="Float64">
398.386 397.681 340.7 342.272 340.7 342.272 398.386 397.681 181.864 164.353 190.566 136.963 190.566 136.963 181.864 164.353 -65.2998 -82.1851 -40.8663 -89.269 -40.8663 -89.269 -65.2998 -82.1851 -557.223 -554.732 -509.41 -494.087 -509.41 -494.087 -557.223 -554.732 234.624 243.299 241.327 241.774 241.678 241.678 241.774 241.327 243.299 234.624 243.244 234.569 236.541 236.094 236.19 236.19 236.094 236.541 234.569 243.244 125.792 141.056 137.587 138.373 138.203 138.203 138.373 137.587 141.056 125.792 145.149 129.885 133.355 132.568 132.738 132.738 132.568 133.355 129.885 145.149 -70.1715 -53.418 -57.226 -56.3625 -56.5492 -56.5492 -56.3625 -57.226 -53.418 -70.1715 -48.3869 -65.1404 -61.3324 -62.1959 -62.0092 -62.0092 -62.1959 -61.3324 -65.1404 -48.3869 -377.277 -366.443 -368.905 -368.347 -368.468 -368.468 -368.347 -368.905 -366.443 -377.277 -365.138 -375.973 -373.51 -374.068 -373.948 -373.948 -374.068 -373.51 -375.973 -365.138 379.838 393.251 360.361 338.531 314.036 290.249 266.009 243.046 214.927 208.256 399.928 388.075 361.696 338.185 314.136 290.18 266.194 242.349 217.627 197.779 399.928 388.075 361.696 338.185 314.136 290.18 266.194 242.349 217.627 197.779 379.838 393.251 360.361 338.531 314.036 290.249 266.009 243.046 214.927 208.256 136.984 140.903 109.596 86.7689 61.8695 37.5799 12.6968 -10.2019 -41.2089 -38.5426 153.291 136.694 110.683 86.484 61.9597 37.4918 12.9708 -11.246 -37.1673 -54.2027 153.291 136.694 110.683 86.484 61.9597 37.4918 12.9708 -11.246 -37.1673 -54.2027 136.984 140.903 109.596 86.7689 61.8695 37.5799 12.6968 -10.2019 -41.2089 -38.5426 -118.308 -154.274 -207.265 -255.806 -305.544 -354.829 -404.773 -452.468 -508.721 -532.155 -110.661 -156.305 -206.725 -255.954 -305.489 -354.906 -404.519 -453.416 -505.154 -545.589 -110.661 -156.305 -206.725 -255.954 -305.489 -354.906 -404.519 -453.416 -505.154 -545.589 -118.308 -154.274 -207.265 -255.806 -305.544 -354.829 -404.773 -452.468 -508.721 -532.155 
</DataArray>
<DataArray Name="Stress_33" format="ascii" type="Float64">
0 0 0 0 0 0 0 0 0 0 0 0 0 0 0 0 0 0 0 0 0 0 0 0 0 0 0 0 0 0 0 0 0 0 0 0 0 0 0 0 0 0 0 0 0 0 0 0 0 0 0 0 0 0 0 0 0 0 0 0 0 0 0 0 0 0 0 0 0 0 0 0 0 0 0 0 0 0 0 0 0 0 0 0 0 0 0 0 0 0 0 0 0 0 0 0 0 0 0 0 0 0 0 0 0 0 0 0 0 0 0 0 0 0 0 0 0 0 0 0 0 0 0 0 0 0 0 0 0 0 0 0 0 0 0 0 0 0 0 0 0 0 0 0 0 0 0 0 0 0 0 0 0 0 0 0 0 0 0 0 0 0 0 0 0 0 0 0 0 0 0 0 0 0 0 0 0 0 0 0 0 0 0 0 0 0 0 0 0 0 0 0 0 0 0 0 0 0 0 0 0 0 0 0 0 0 0 0 0 0 0 0 0 0 0 0 0 0 0 0 0 0 0 0 0 0 0 0 0 0 0 0 
</DataArray>
</CellData>
<Points>
<DataArray NumberOfComponents="3" format="ascii" type="Float64">
-0.5 -0.125 0 -0.49 -0.125 0 -0.495 -0.125 0 -0.49 -0.115 0 -0.49 -0.12 0 -0.5 -0.115 0 -0.495 -0.115 0 -0.5 -0.12 0 -0.495 -0.12 0 -0.5 0.115 0 -0.49 0.115 0 -0.495 0.115 0 -0.49 0.125 0 -0.49 0.12 0 -0.5 0.125 0 -0.495 0.125 0 -0.5 0.12 0 -0.495 0.12 0 -0.255 -0.125 0 -0.245 -0.125 0 -0.25 -0.125 0 -0.245 -0.115 0 -0.245 -0.12 0 -0.255 -0.115 0 -0.25 -0.115 0 -0.255 -0.12 0 -0.25 -0.12 0 -0.255 0.115 0 -0.245 0.115 0 -0.25 0.115 0 -0.245 0.125 0 -0.245 0.12 0 -0.255 0.125 0 -0.25 0.125 0 -0.255 0.12 0 -0.25 0.12 0 -0.005 -0.125 0 0.005 -0.125 0 0 -0.125 0 0.005 -0.115 0 0.005 -0.12 0 -0.005 -0.115 0 0 -0.115 0 -0.005 -0.12 0 0 -0.12 0 -0.005 0.115 0 0.005 0.115 0 0 0.115 0 0.005 0.125 0 0.005 0.12 0 -0.005 0.125 0 0 0.125 0 -0.005 0.12 0 0 0.12 0 0.49 -0.125 0 0.5 -0.125 0 0.495 -0.125 0 0.5 -0.115 0 0.5 -0.12 0 0.49 -0.115 0 0.495 -0.115 0 0.49 -0.12 0 0.495 -0.12 0 0.49 0.115 0 0.5 0.115 0 0.495 0.115 0 0.5 0.125 0 0.5 0.12 0 0.49 0.125 0 0.495 0.125 0 0.49 0.12 0 0.495 0.12 0 -0.5 -0.092 0 -0.5 -0.069 0 -0.5 -0.046 0 -0.5 -0.023 0 -0.5 0 0 -0.5 0.023 0 -0.5 0.046 0 -0.5 0.069 0 -0.5 0.092 0 -0.49 -0.092 0 -0.49 -0.069 0 -0.49 -0.046 0 -0.49 -0.023 0 -0.49 0 0 -0.49 0.023 0 -0.49 0.046 0 -0.49 0.069 0 -0.49 0.092 0 -0.495 -0.092 0 -0.495 -0.069 0 -0.495 -0.046 0 -0.495 -0.023 0 -0.495 0 0 -0.495 0.023 0 -0.495 0.046 0 -0.495 0.069 0 -0.495 0.092 0 -0.255 -0.092 0 -0.255 -0.069 0 -0.255 -0.046 0 -0.255 -0.023 0 -0.255 0 0 -0.255 0.023 0 -0.255 0.046 0 -0.255 0.069 0 -0.255 0.092 0 -0.245 -0.092 0 -0.245 -0.069 0 -0.245 -0.046 0 -0.245 -0.023 0 -0.245 0 0 -0.245 0.023 0 -0.245 0.046 0 -0.245 0.069 0 -0.245 0.092 0 -0.25 -0.092 0 -0.25 -0.069 0 -0.25 -0.046 0 -0.25 -0.023 0 -0.25 0 0 -0.25 0.023 0 -0.25 0.046 0 -0.25 0.069 0 -0.25 0.092 0 -0.005 -0.092 0 -0.005 -0.069 0 -0.005 -0.046 0 -0.005 -0.023 0 -0.005 0 0 -0.005 0.023 0 -0.005 0.046 0 -0.005 0.069 0 -0.005 0.092 0 0.005 -0.092 0 0.005 -0.069 0 0.005 -0.046 0 0.005 -0.023 0 0.005 0 0 0.005 0.023 0 0.005 0.046 0 0.005 0.069 0 0.005 0.092 0 0 -0.092 0 0 -0.069 0 0 -0.046 0 0 -0.023 0 0 0 0 0 0.023 0 0 0.046 0 0 0.069 0 0 0.092 0 0.49 -0.092 0 0.49 -0.069 0 0.49 -0.046 0 0.49 -0.023 0 0.49 0 0 0.49 0.023 0 0.49 0.046 0 0.49 0.069 0 0.49 0.092 0 0.5 -0.092 0 0.5 -0.069 0 0.5 -0.046 0 0.5 -0.023 0 0.5 0 0 0.5 0.023 0 0.5 0.046 0 0.5 0.069 0 0.5 0.092 0 0.495 -0.092 0 0.495 -0.069 0 0.495 -0.046 0 0.495 -0.023 0 0.495 0 0 0.495 0.023 0 0.495 0.046 0 0.495 0.069 0 0.495 0.092 0 -0.4665 0.125 0 -0.443 0.125 0 -0.4195 0.125 0 -0.396 0.125 0 -0.3725 0.125 0 -0.349 0.125 0 -0.3255 0.125 0 -0.302 0.125 0 -0.2785 0.125 0 -0.4665 0.115 0 -0.443 0.115 0 -0.4195 0.115 0 -0.396 0.115 0 -0.3725 0.115 0 -0.349 0.115 0 -0.3255 0.115 0 -0.302 0.115 0 -0.2785 0.115 0 -0.4665 0.12 0 -0.443 0.12 0 -0.4195 0.12 0 -0.396 0.12 0 -0.3725 0.12 0 -0.349 0.12 0 -0.3255 0.12 0 -0.302 0.12 0 -0.2785 0.12 0 -0.4665 -0.115 0 -0.443 -0.115 0 -0.4195 -0.115 0 -0.396 -0.115 0 -0.3725 -0.115 0 -0.349 -0.115 0 -0.3255 -0.115 0 -0.302 -0.115 0 -0.2785 -0.115 0 -0.4665 -0.125 0 -0.443 -0.125 0 -0.4195 -0.125 0 -0.396 -0.125 0 -0.3725 -0.125 0 -0.349 -0.125 0 -0.3255 -0.125 0 -0.302 -0.125 0 -0.2785 -0.125 0 -0.4665 -0.12 0 -0.443 -0.12 0 -0.4195 -0.12 0 -0.396 -0.12 0 -0.3725 -0.12 0 -0.349 -0.12 0 -0.3255 -0.12 0 -0.302 -0.12 0 -0.2785 -0.12 0 -0.221 0.125 0 -0.197 0.125 0 -0.173 0.125 0 -0.149 0.125 0 -0.125 0.125 0 -0.101 0.125 0 -0.077 0.125 0 -0.053 0.125 0 -0.029 0.125 0 -0.221 0.115 0 -0.197 0.115 0 -0.173 0.115 0 -0.149 0.115 0 -0.125 0.115 0 -0.101 0.115 0 -0.077 0.115 0 -0.053 0.115 0 -0.029 0.115 0 -0.221 0.12 0 -0.197 0.12 0 -0.173 0.12 0 -0.149 0.12 0 -0.125 0.12 0 -0.101 0.12 0 -0.077 0.12 0 -0.053 0.12 0 -0.029 0.12 0 -0.221 -0.115 0 -0.197 -0.115 0 -0.173 -0.115 0 -0.149 -0.115 0 -0.125 -0.115 0 -0.101 -0.115 0 -0.077 -0.115 0 -0.053 -0.115 0 -0.029 -0.115 0 -0.221 -0.125 0 -0.197 -0.125 0 -0.173 -0.125 0 -0.149 -0.125 0 -0.125 -0.125 0 -0.101 -0.125 0 -0.077 -0.125 0 -0.053 -0.125 0 -0.029 -0.125 0 -0.221 -0.12 0 -0.197 -0.12 0 -0.173 -0.12 0 -0.149 -0.12 0 -0.125 -0.12 0 -0.101 -0.12 0 -0.077 -0.12 0 -0.053 -0.12 0 -0.029 -0.12 0 0.0535 0.125 0 0.102 0.125 0 0.1505 0.125 0 0.199 0.125 0 0.2475 0.125 0 0.296 0.125 0 0.3445 0.125 0 0.393 0.125 0 0.4415 0.125 0 0.0535 0.115 0 0.102 0.115 0 0.1505 0.115 0 0.199 0.115 0 0.2475 0.115 0 0.296 0.115 0 0.3445 0.115 0 0.393 0.115 0 0.4415 0.115 0 0.0535 0.12 0 0.102 0.12 0 0.1505 0.12 0 0.199 0.12 0 0.2475 0.12 0 0.296 0.12 0 0.3445 0.12 0 0.393 0.12 0 0.4415 0.12 0 0.0535 -0.115 0 0.102 -0.115 0 0.1505 -0.115 0 0.199 -0.115 0 0.2475 -0.115 0 0.296 -0.115 0 0.3445 -0.115 0 0.393 -0.115 0 0.4415 -0.115 0 0.0535 -0.125 0 0.102 -0.125 0 0.1505 -0.125 0 0.199 -0.125 0 0.2475 -0.125 0 0.296 -0.125 0 0.3445 -0.125 0 0.393 -0.125 0 0.4415 -0.125 0 0.0535 -0.12 0 0.102 -0.12 0 0.1505 -0.12 0 0.199 -0.12 0 0.2475 -0.12 0 0.296 -0.12 0 0.3445 -0.12 0 0.393 -0.12 0 0.4415 -0.12 0 
</DataArray>
</Points>
<Cells>
<DataArray Name="connectivity" format="ascii" type="Int64">
0 2 8 7 2 1 4 8 7 8 6 5 8 4 3 6 9 11 17 16 11 10 13 17 16 17 15 14 17 13 12 15 18 20 26 25 20 19 22 26 25 26 24 23 26 22 21 24 27 29 35 34 29 28 31 35 34 35 33 32 35 31 30 33 36 38 44 43 38 37 40 44 43 44 42 41 44 40 39 42 45 47 53 52 47 46 49 53 52 53 51 50 53 49 48 51 54 56 62 61 56 55 58 62 61 62 60 59 62 58 57 60 63 65 71 70 65 64 67 71 70 71 69 68 71 67 66 69 3 81 90 6 81 82 91 90 82 83 92 91 83 84 93 92 84 85 94 93 85 86 95 94 86 87 96 95 87 88 97 96 88 89 98 97 89 10 11 98 6 90 72 5 90 91 73 72 91 92 74 73 92 93 75 74 93 94 76 75 94 95 77 76 95 96 78 77 96 97 79 78 97 98 80 79 98 11 9 80 21 108 117 24 108 109 118 117 109 110 119 118 110 111 120 119 111 112 121 120 112 113 122 121 113 114 123 122 114 115 124 123 115 116 125 124 116 28 29 125 24 117 99 23 117 118 100 99 118 119 101 100 119 120 102 101 120 121 103 102 121 122 104 103 122 123 105 104 123 124 106 105 124 125 107 106 125 29 27 107 39 135 144 42 135 136 145 144 136 137 146 145 137 138 147 146 138 139 148 147 139 140 149 148 140 141 150 149 141 142 151 150 142 143 152 151 143 46 47 152 42 144 126 41 144 145 127 126 145 146 128 127 146 147 129 128 147 148 130 129 148 149 131 130 149 150 132 131 150 151 133 132 151 152 134 133 152 47 45 134 57 162 171 60 162 163 172 171 163 164 173 172 164 165 174 173 165 166 175 174 166 167 176 175 167 168 177 176 168 169 178 177 169 170 179 178 170 64 65 179 60 171 153 59 171 172 154 153 172 173 155 154 173 174 156 155 174 175 157 156 175 176 158 157 176 177 159 158 177 178 160 159 178 179 161 160 179 65 63 161 10 189 198 13 189 190 199 198 190 191 200 199 191 192 201 200 192 193 202 201 193 194 203 202 194 195 204 203 195 196 205 204 196 197 206 205 197 27 34 206 13 198 180 12 198 199 181 180 199 200 182 181 200 201 183 182 201 202 184 183 202 203 185 184 203 204 186 185 204 205 187 186 205 206 188 187 206 34 32 188 1 216 225 4 216 217 226 225 217 218 227 226 218 219 228 227 219 220 229 228 220 221 230 229 221 222 231 230 222 223 232 231 223 224 233 232 224 18 25 233 4 225 207 3 225 226 208 207 226 227 209 208 227 228 210 209 228 229 211 210 229 230 212 211 230 231 213 212 231 232 214 213 232 233 215 214 233 25 23 215 28 243 252 31 243 244 253 252 244 245 254 253 245 246 255 254 246 247 256 255 247 248 257 256 248 249 258 257 249 250 259 258 250 251 260 259 251 45 52 260 31 252 234 30 252 253 235 234 253 254 236 235 254 255 237 236 255 256 238 237 256 257 239 238 257 258 240 239 258 259 241 240 259 260 242 241 260 52 50 242 19 270 279 22 270 271 280 279 271 272 281 280 272 273 282 281 273 274 283 282 274 275 284 283 275 276 285 284 276 277 286 285 277 278 287 286 278 36 43 287 22 279 261 21 279 280 262 261 280 281 263 262 281 282 264 263 282 283 265 264 283 284 266 265 284 285 267 266 285 286 268 267 286 287 269 268 287 43 41 269 46 297 306 49 297 298 307 306 298 299 308 307 299 300 309 308 300 301 310 309 301 302 311 310 302 303 312 311 303 304 313 312 304 305 314 313 305 63 70 314 49 306 288 48 306 307 289 288 307 308 290 289 308 309 291 290 309 310 292 291 310 311 293 292 311 312 294 293 312 313 295 294 313 314 296 295 314 70 68 296 37 324 333 40 324 325 334 333 325 326 335 334 326 327 336 335 327 328 337 336 328 329 338 337 329 330 339 338 330 331 340 339 331 332 341 340 332 54 61 341 40 333 315 39 333 334 316 315 334 335 317 316 335 336 318 317 336 337 319 318 337 338 320 319 338 339 321 320 339 340 322 321 340 341 323 322 341 61 59 323 
</DataArray>
<DataArray Name="offsets" format="ascii" type="Int64">
4 8 12 16 20 24 28 32 36 40 44 48 52 56 60 64 68 72 76 80 84 88 92 96 100 104 108 112 116 120 124 128 132 136 140 144 148 152 156 160 164 168 172 176 180 184 188 192 196 200 204 208 212 216 220 224 228 232 236 240 244 248 252 256 260 264 268 272 276 280 284 288 292 296 300 304 308 312 316 320 324 328 332 336 340 344 348 352 356 360 364 368 372 376 380 384 388 392 396 400 404 408 412 416 420 424 428 432 436 440 444 448 452 456 460 464 468 472 476 480 484 488 492 496 500 504 508 512 516 520 524 528 532 536 540 544 548 552 556 560 564 568 572 576 580 584 588 592 596 600 604 608 612 616 620 624 628 632 636 640 644 648 652 656 660 664 668 672 676 680 684 688 692 696 700 704 708 712 716 720 724 728 732 736 740 744 748 752 756 760 764 768 772 776 780 784 788 792 796 800 804 808 812 816 820 824 828 832 836 840 844 848 852 856 860 864 868 872 876 880 884 888 892 896 900 904 908 912 916 920 924 928 
</DataArray>
<DataArray Name="types" format="ascii" type="Int8">
9 9 9 9 9 9 9 9 9 9 9 9 9 9 9 9 9 9 9 9 9 9 9 9 9 9 9 9 9 9 9 9 9 9 9 9 9 9 9 9 9 9 9 9 9 9 9 9 9 9 9 9 9 9 9 9 9 9 9 9 9 9 9 9 9 9 9 9 9 9 9 9 9 9 9 9 9 9 9 9 9 9 9 9 9 9 9 9 9 9 9 9 9 9 9 9 9 9 9 9 9 9 9 9 9 9 9 9 9 9 9 9 9 9 9 9 9 9 9 9 9 9 9 9 9 9 9 9 9 9 9 9 9 9 9 9 9 9 9 9 9 9 9 9 9 9 9 9 9 9 9 9 9 9 9 9 9 9 9 9 9 9 9 9 9 9 9 9 9 9 9 9 9 9 9 9 9 9 9 9 9 9 9 9 9 9 9 9 9 9 9 9 9 9 9 9 9 9 9 9 9 9 9 9 9 9 9 9 9 9 9 9 9 9 9 9 9 9 9 9 9 9 9 9 9 9 9 9 9 9 9 9 
</DataArray>
</Cells>
</Piece>
</UnstructuredGrid>
</VTKFile>
