<?xml version="1.0"?>
<VTKFile byte_order="LittleEndian" type="UnstructuredGrid" version="0.1">
<UnstructuredGrid>
<Piece NumberOfCells="100" NumberOfPoints="121">
<PointData>
<DataArray Name="Warping_X" format="ascii" type="Float64">
3.94665e-18 3.33277e-18 3.81301e-18 3.62917e-18 3.46847e-18 3.36693e-18 1.17038e-33 3.14284e-18 2.64135e-18 1.89854e-18 9.9103e-19 -2.61727e-34 7.33896e-34 3.17331e-34 -3.56388e-34 -5.97633e-34 1.12119e-18 2.16575e-18 3.05311e-18 3.69122e-18 3.6003e-18 3.42689e-18 3.27337e-18 3.17575e-18 3.01771e-18 2.88022e-18 2.75231e-18 2.66945e-18 2.16029e-18 2.06881e-18 1.97847e-18 1.9189e-18 1.12419e-18 1.07907e-18 1.03269e-18 1.00168e-18 3.94665e-18 3.36693e-18 3.46847e-18 3.62917e-18 3.81301e-18 1.61076e-33 3.69122e-18 3.05311e-18 2.16575e-18 1.12119e-18 1.72887e-33 1.29302e-33 1.41704e-33 1.64118e-33 3.17575e-18 3.27337e-18 3.42689e-18 3.6003e-18 2.66945e-18 2.75231e-18 2.88022e-18 3.01771e-18 1.9189e-18 1.97847e-18 2.06881e-18 2.16029e-18 1.00168e-18 1.03269e-18 1.07907e-18 1.12419e-18 -3.33277e-18 -9.9103e-19 -1.89854e-18 -2.64135e-18 -3.14284e-18 -3.94665e-18 -3.36693e-18 -3.46847e-18 -3.62917e-18 -3.81301e-18 -3.69122e-18 -3.05311e-18 -2.16575e-18 -1.12119e-18 -1.12419e-18 -1.07907e-18 -1.03269e-18 -1.00168e-18 -2.16029e-18 -2.06881e-18 -1.97847e-18 -1.9189e-18 -3.01771e-18 -2.88022e-18 -2.75231e-18 -2.66945e-18 -3.6003e-18 -3.42689e-18 -3.27337e-18 -3.17575e-18 -3.94665e-18 -1.12119e-18 -2.16575e-18 -3.05311e-18 -3.69122e-18 -3.81301e-18 -3.62917e-18 -3.46847e-18 -3.36693e-18 -1.00168e-18 -1.03269e-18 -1.07907e-18 -1.12419e-18 -1.9189e-18 -1.97847e-18 -2.06881e-18 -2.16029e-18 -2.66945e-18 -2.75231e-18 -2.88022e-18 -3.01771e-18 -3.17575e-18 -3.27337e-18 -3.42689e-18 -3.6003e-18 
</DataArray>
<DataArray Name="Warping_Y" format="ascii" type="Float64">
-1.00511e-18 2.42885e-34 -9.10141e-19 -7.61027e-19 -5.42184e-19 -2.80357e-19 -1.46001e-33 -3.98557e-34 -1.08863e-33 -1.22961e-33 -1.64262e-33 -1.2316e-18 -1.8597e-19 -3.89528e-19 -6.27486e-19 -9.11215e-19 -1.20254e-18 -1.12389e-18 -1.02336e-18 -9.49629e-19 -7.97578e-19 -6.24903e-19 -4.30942e-19 -2.2001e-19 -7.96357e-19 -5.86661e-19 -3.86835e-19 -1.92387e-19 -8.45368e-19 -5.96701e-19 -3.79792e-19 -1.84591e-19 -8.9259e-19 -6.17953e-19 -3.8579e-19 -1.84973e-19 1.00511e-18 2.80357e-19 5.42184e-19 7.61027e-19 9.10141e-19 1.2316e-18 9.49629e-19 1.02336e-18 1.12389e-18 1.20254e-18 9.11215e-19 6.27486e-19 3.89528e-19 1.8597e-19 2.2001e-19 4.30942e-19 6.24903e-19 7.97578e-19 1.92387e-19 3.86835e-19 5.86661e-19 7.96357e-19 1.84591e-19 3.79792e-19 5.96701e-19 8.45368e-19 1.84973e-19 3.8579e-19 6.17953e-19 8.9259e-19 1.3268e-33 -1.06059e-33 -2.47593e-34 7.61736e-34 1.38534e-33 -1.00511e-18 -2.80357e-19 -5.42184e-19 -7.61027e-19 -9.10141e-19 -9.49629e-19 -1.02336e-18 -1.12389e-18 -1.20254e-18 -8.9259e-19 -6.17953e-19 -3.8579e-19 -1.84973e-19 -8.45368e-19 -5.96701e-19 -3.79792e-19 -1.84591e-19 -7.96357e-19 -5.86661e-19 -3.86835e-19 -1.92387e-19 -7.97578e-19 -6.24903e-19 -4.30942e-19 -2.2001e-19 1.00511e-18 1.20254e-18 1.12389e-18 1.02336e-18 9.49629e-19 9.10141e-19 7.61027e-19 5.42184e-19 2.80357e-19 1.84973e-19 3.8579e-19 6.17953e-19 8.9259e-19 1.84591e-19 3.79792e-19 5.96701e-19 8.45368e-19 1.92387e-19 3.86835e-19 5.86661e-19 7.96357e-19 2.2001e-19 4.30942e-19 6.24903e-19 7.97578e-19 
</DataArray>
<DataArray Name="Warping_Z" format="ascii" type="Float64">
0 0 0 0 0 0 0 0 0 0 0 0 0 0 0 0 0 0 0 0 0 0 0 0 0 0 0 0 0 0 0 0 0 0 0 0 0 0 0 0 0 0 0 0 0 0 0 0 0 0 0 0 0 0 0 0 0 0 0 0 0 0 0 0 0 0 0 0 0 0 0 0 0 0 0 0 0 0 0 0 0 0 0 0 0 0 0 0 0 0 0 0 0 0 0 0 0 0 0 0 0 0 0 0 0 0 0 0 0 0 0 0 0 0 0 0 0 0 0 0 0 
</DataArray>
</PointData>
<CellData>
<DataArray Name="MaterialId" format="ascii" type="Float64">
3 3 3 3 3 3 3 3 3 3 3 3 3 3 3 3 3 3 3 3 3 3 3 3 3 3 3 3 3 3 3 3 3 3 3 3 3 3 3 3 3 3 3 3 3 3 3 3 3 3 3 3 3 3 3 3 3 3 3 3 3 3 3 3 3 3 3 3 3 3 3 3 3 3 3 3 3 3 3 3 3 3 3 3 3 3 3 3 3 3 3 3 3 3 3 3 3 3 3 3 
</DataArray>
<DataArray Name="FiberAngle" format="ascii" type="Float64">
90 90 90 90 90 90 90 90 90 90 90 90 90 90 90 90 90 90 90 90 90 90 90 90 90 90 90 90 90 90 90 90 90 90 90 90 90 90 90 90 90 90 90 90 90 90 90 90 90 90 90 90 90 90 90 90 90 90 90 90 90 90 90 90 90 90 90 90 90 90 90 90 90 90 90 90 90 90 90 90 90 90 90 90 90 90 90 90 90 90 90 90 90 90 90 90 90 90 90 90 
</DataArray>
<DataArray Name="Strain_11" format="ascii" type="Float64">
-2.34069e-17 -6.10345e-17 -8.72393e-17 -1.04033e-16 -1.12269e-16 -2.07491e-17 -5.64628e-17 -8.34416e-17 -1.01292e-16 -1.10163e-16 -1.98684e-17 -5.33868e-17 -7.92623e-17 -9.67762e-17 -1.05588e-16 -1.93139e-17 -5.13682e-17 -7.62193e-17 -9.315e-17 -1.01718e-16 -1.90554e-17 -5.03898e-17 -7.46679e-17 -9.12362e-17 -9.96356e-17 -1.90554e-17 -5.03898e-17 -7.46679e-17 -9.12362e-17 -9.96356e-17 -1.93139e-17 -5.13682e-17 -7.62193e-17 -9.315e-17 -1.01718e-16 -1.98684e-17 -5.33868e-17 -7.92623e-17 -9.67762e-17 -1.05588e-16 -2.07491e-17 -5.64628e-17 -8.34416e-17 -1.01292e-16 -1.10163e-16 -2.34069e-17 -6.10345e-17 -8.72393e-17 -1.04033e-16 -1.12269e-16 -1.12269e-16 -1.04033e-16 -8.72393e-17 -6.10345e-17 -2.34069e-17 -1.10163e-16 -1.01292e-16 -8.34416e-17 -5.64628e-17 -2.07491e-17 -1.05588e-16 -9.67762e-17 -7.92623e-17 -5.33868e-17 -1.98684e-17 -1.01718e-16 -9.315e-17 -7.62193e-17 -5.13682e-17 -1.93139e-17 -9.96356e-17 -9.12362e-17 -7.46679e-17 -5.03898e-17 -1.90554e-17 -9.96356e-17 -9.12362e-17 -7.46679e-17 -5.03898e-17 -1.90554e-17 -1.01718e-16 -9.315e-17 -7.62193e-17 -5.13682e-17 -1.93139e-17 -1.05588e-16 -9.67762e-17 -7.92623e-17 -5.33868e-17 -1.98684e-17 -1.10163e-16 -1.01292e-16 -8.34416e-17 -5.64628e-17 -2.07491e-17 -1.12269e-16 -1.04033e-16 -8.72393e-17 -6.10345e-17 -2.34069e-17 
</DataArray>
<DataArray Name="Strain_22" format="ascii" type="Float64">
1.2351e-17 1.89526e-17 2.5276e-17 2.94233e-17 3.15169e-17 1.60894e-17 1.91185e-17 2.29181e-17 2.61652e-17 2.79182e-17 2.06402e-17 1.96894e-17 2.08368e-17 2.24536e-17 2.35061e-17 2.36379e-17 2.0269e-17 1.94824e-17 1.98009e-17 2.02188e-17 2.50184e-17 2.06199e-17 1.88489e-17 1.84782e-17 1.85472e-17 2.50184e-17 2.06199e-17 1.88489e-17 1.84782e-17 1.85472e-17 2.36379e-17 2.0269e-17 1.94824e-17 1.98009e-17 2.02188e-17 2.06402e-17 1.96894e-17 2.08368e-17 2.24536e-17 2.35061e-17 1.60894e-17 1.91185e-17 2.29181e-17 2.61652e-17 2.79182e-17 1.2351e-17 1.89526e-17 2.5276e-17 2.94233e-17 3.15169e-17 3.15169e-17 2.94233e-17 2.5276e-17 1.89526e-17 1.2351e-17 2.79182e-17 2.61652e-17 2.29181e-17 1.91185e-17 1.60894e-17 2.35061e-17 2.24536e-17 2.08368e-17 1.96894e-17 2.06402e-17 2.02188e-17 1.98009e-17 1.94824e-17 2.0269e-17 2.36379e-17 1.85472e-17 1.84782e-17 1.88489e-17 2.06199e-17 2.50184e-17 1.85472e-17 1.84782e-17 1.88489e-17 2.06199e-17 2.50184e-17 2.02188e-17 1.98009e-17 1.94824e-17 2.0269e-17 2.36379e-17 2.35061e-17 2.24536e-17 2.08368e-17 1.96894e-17 2.06402e-17 2.79182e-17 2.61652e-17 2.29181e-17 1.91185e-17 1.60894e-17 3.15169e-17 2.94233e-17 2.5276e-17 1.89526e-17 1.2351e-17 
</DataArray>
<DataArray Name="Strain_12" format="ascii" type="Float64">
-2.82585e-18 -9.94149e-18 -9.5197e-18 -6.41651e-18 -2.2346e-18 -5.42802e-18 -1.35716e-17 -1.44012e-17 -1.02538e-17 -3.66385e-18 -3.34264e-18 -9.95438e-18 -1.10626e-17 -8.19857e-18 -2.98265e-18 -1.37861e-18 -5.43762e-18 -6.37961e-18 -4.84806e-18 -1.78706e-18 -3.36053e-19 -1.66922e-18 -2.03325e-18 -1.56956e-18 -5.8239e-19 3.36053e-19 1.66922e-18 2.03325e-18 1.56956e-18 5.8239e-19 1.37861e-18 5.43762e-18 6.37961e-18 4.84806e-18 1.78706e-18 3.34264e-18 9.95438e-18 1.10626e-17 8.19857e-18 2.98265e-18 5.42802e-18 1.35716e-17 1.44012e-17 1.02538e-17 3.66385e-18 2.82585e-18 9.94149e-18 9.5197e-18 6.41651e-18 2.2346e-18 2.2346e-18 6.41651e-18 9.5197e-18 9.94149e-18 2.82585e-18 3.66385e-18 1.02538e-17 1.44012e-17 1.35716e-17 5.42802e-18 2.98265e-18 8.19857e-18 1.10626e-17 9.95438e-18 3.34264e-18 1.78706e-18 4.84806e-18 6.37961e-18 5.43762e-18 1.37861e-18 5.8239e-19 1.56956e-18 2.03325e-18 1.66922e-18 3.36053e-19 -5.8239e-19 -1.56956e-18 -2.03325e-18 -1.66922e-18 -3.36053e-19 -1.78706e-18 -4.84806e-18 -6.37961e-18 -5.43762e-18 -1.37861e-18 -2.98265e-18 -8.19857e-18 -1.10626e-17 -9.95438e-18 -3.34264e-18 -3.66385e-18 -1.02538e-17 -1.44012e-17 -1.35716e-17 -5.42802e-18 -2.2346e-18 -6.41651e-18 -9.5197e-18 -9.94149e-18 -2.82585e-18 
</DataArray>
<DataArray Name="Strain_13" format="ascii" type="Float64">
-0.37125 0.536442 1.18655 1.61095 1.82104 -0.451279 0.380837 1.00529 1.41866 1.62443 -0.482155 0.295539 0.888534 1.28656 1.48601 -0.498955 0.248891 0.820036 1.20525 1.39903 -0.506404 0.227741 0.788318 1.16674 1.35733 -0.506404 0.227741 0.788318 1.16674 1.35733 -0.498955 0.248891 0.820036 1.20525 1.39903 -0.482155 0.295539 0.888534 1.28656 1.48601 -0.451279 0.380837 1.00529 1.41866 1.62443 -0.37125 0.536442 1.18655 1.61095 1.82104 1.82104 1.61095 1.18655 0.536442 -0.37125 1.62443 1.41866 1.00529 0.380837 -0.451279 1.48601 1.28656 0.888534 0.295539 -0.482155 1.39903 1.20525 0.820036 0.248891 -0.498955 1.35733 1.16674 0.788318 0.227741 -0.506404 1.35733 1.16674 0.788318 0.227741 -0.506404 1.39903 1.20525 0.820036 0.248891 -0.498955 1.48601 1.28656 0.888534 0.295539 -0.482155 1.62443 1.41866 1.00529 0.380837 -0.451279 1.82104 1.61095 1.18655 0.536442 -0.37125 
</DataArray>
<DataArray Name="Strain_23" format="ascii" type="Float64">
-0.114554 -0.0444556 -0.0218374 -0.0101747 -0.00298642 -0.214703 -0.10853 -0.0547935 -0.0259962 -0.00767425 -0.20566 -0.118091 -0.063808 -0.0310468 -0.00925656 -0.141887 -0.0860889 -0.0486928 -0.0243053 -0.00731839 -0.0501837 -0.0311405 -0.0179703 -0.00909705 -0.00275668 0.0501837 0.0311405 0.0179703 0.00909705 0.00275668 0.141887 0.0860889 0.0486928 0.0243053 0.00731839 0.20566 0.118091 0.063808 0.0310468 0.00925656 0.214703 0.10853 0.0547935 0.0259962 0.00767425 0.114554 0.0444556 0.0218374 0.0101747 0.00298642 0.00298642 0.0101747 0.0218374 0.0444556 0.114554 0.00767425 0.0259962 0.0547935 0.10853 0.214703 0.00925656 0.0310468 0.063808 0.118091 0.20566 0.00731839 0.0243053 0.0486928 0.0860889 0.141887 0.00275668 0.00909705 0.0179703 0.0311405 0.0501837 -0.00275668 -0.00909705 -0.0179703 -0.0311405 -0.0501837 -0.00731839 -0.0243053 -0.0486928 -0.0860889 -0.141887 -0.00925656 -0.0310468 -0.063808 -0.118091 -0.20566 -0.00767425 -0.0259962 -0.0547935 -0.10853 -0.214703 -0.00298642 -0.0101747 -0.0218374 -0.0444556 -0.114554 
</DataArray>
<DataArray Name="Strain_33" format="ascii" type="Float64">
-3.02929e-18 -7.2381e-19 1.0105e-18 2.16652e-18 2.74467e-18 -3.04139e-18 -7.2664e-19 1.01313e-18 2.17211e-18 2.75138e-18 -3.04458e-18 -7.2882e-19 1.01227e-18 2.17435e-18 2.75536e-18 -3.04396e-18 -7.2841e-19 1.01161e-18 2.17382e-18 2.75552e-18 -3.04326e-18 -7.27735e-19 1.01158e-18 2.17321e-18 2.75479e-18 -3.04326e-18 -7.27735e-19 1.01158e-18 2.17321e-18 2.75479e-18 -3.04396e-18 -7.2841e-19 1.01161e-18 2.17382e-18 2.75552e-18 -3.04458e-18 -7.2882e-19 1.01227e-18 2.17435e-18 2.75536e-18 -3.04139e-18 -7.2664e-19 1.01313e-18 2.17211e-18 2.75138e-18 -3.02929e-18 -7.2381e-19 1.0105e-18 2.16652e-18 2.74467e-18 2.74467e-18 2.16652e-18 1.0105e-18 -7.2381e-19 -3.02929e-18 2.75138e-18 2.17211e-18 1.01313e-18 -7.2664e-19 -3.04139e-18 2.75536e-18 2.17435e-18 1.01227e-18 -7.2882e-19 -3.04458e-18 2.75552e-18 2.17382e-18 1.01161e-18 -7.2841e-19 -3.04396e-18 2.75479e-18 2.17321e-18 1.01158e-18 -7.27735e-19 -3.04326e-18 2.75479e-18 2.17321e-18 1.01158e-18 -7.27735e-19 -3.04326e-18 2.75552e-18 2.17382e-18 1.01161e-18 -7.2841e-19 -3.04396e-18 2.75536e-18 2.17435e-18 1.01227e-18 -7.2882e-19 -3.04458e-18 2.75138e-18 2.17211e-18 1.01313e-18 -7.2664e-19 -3.04139e-18 2.74467e-18 2.16652e-18 1.0105e-18 -7.2381e-19 -3.02929e-18 
</DataArray>
<DataArray Name="Stress_11" format="ascii" type="Float64">
-1.89604e-14 -1.82713e-14 -1.73584e-14 -1.66069e-14 -1.61953e-14 -1.92033e-14 -1.92605e-14 -1.93425e-14 -1.93695e-14 -1.9371e-14 -1.92699e-14 -1.95072e-14 -1.97859e-14 -2.00183e-14 -2.01445e-14 -1.92527e-14 -1.9468e-14 -1.97594e-14 -2.00129e-14 -2.01576e-14 -1.92371e-14 -1.94164e-14 -1.96772e-14 -1.99158e-14 -2.00549e-14 -1.92371e-14 -1.94164e-14 -1.96772e-14 -1.99158e-14 -2.00549e-14 -1.92527e-14 -1.9468e-14 -1.97594e-14 -2.00129e-14 -2.01576e-14 -1.92699e-14 -1.95072e-14 -1.97859e-14 -2.00183e-14 -2.01445e-14 -1.92033e-14 -1.92605e-14 -1.93425e-14 -1.93695e-14 -1.9371e-14 -1.89604e-14 -1.82713e-14 -1.73584e-14 -1.66069e-14 -1.61953e-14 -1.61953e-14 -1.66069e-14 -1.73584e-14 -1.82713e-14 -1.89604e-14 -1.9371e-14 -1.93695e-14 -1.93425e-14 -1.92605e-14 -1.92033e-14 -2.01445e-14 -2.00183e-14 -1.97859e-14 -1.95072e-14 -1.92699e-14 -2.01576e-14 -2.00129e-14 -1.97594e-14 -1.9468e-14 -1.92527e-14 -2.00549e-14 -1.99158e-14 -1.96772e-14 -1.94164e-14 -1.92371e-14 -2.00549e-14 -1.99158e-14 -1.96772e-14 -1.94164e-14 -1.92371e-14 -2.01576e-14 -2.00129e-14 -1.97594e-14 -1.9468e-14 -1.92527e-14 -2.01445e-14 -2.00183e-14 -1.97859e-14 -1.95072e-14 -1.92699e-14 -1.9371e-14 -1.93695e-14 -1.93425e-14 -1.92605e-14 -1.92033e-14 -1.61953e-14 -1.66069e-14 -1.73584e-14 -1.82713e-14 -1.89604e-14 
</DataArray>
<DataArray Name="Stress_22" format="ascii" type="Float64">
8.56725e-16 3.96028e-16 3.01062e-16 2.52332e-16 2.36173e-16 1.4481e-15 5.99234e-16 1.56232e-16 -4.08211e-17 -1.20476e-16 2.0781e-15 7.91334e-16 4.4041e-17 -3.51708e-16 -5.19516e-16 2.49154e-15 9.42029e-16 -2.05417e-17 -5.64534e-16 -8.06238e-16 2.68197e-15 1.02389e-15 -4.67739e-17 -6.67811e-16 -9.49025e-16 2.68197e-15 1.02389e-15 -4.67739e-17 -6.67811e-16 -9.49025e-16 2.49154e-15 9.42029e-16 -2.05417e-17 -5.64534e-16 -8.06238e-16 2.0781e-15 7.91334e-16 4.4041e-17 -3.51708e-16 -5.19516e-16 1.4481e-15 5.99234e-16 1.56232e-16 -4.08211e-17 -1.20476e-16 8.56725e-16 3.96028e-16 3.01062e-16 2.52332e-16 2.36173e-16 2.36173e-16 2.52332e-16 3.01062e-16 3.96028e-16 8.56725e-16 -1.20476e-16 -4.08211e-17 1.56232e-16 5.99234e-16 1.4481e-15 -5.19516e-16 -3.51708e-16 4.4041e-17 7.91334e-16 2.0781e-15 -8.06238e-16 -5.64534e-16 -2.05417e-17 9.42029e-16 2.49154e-15 -9.49025e-16 -6.67811e-16 -4.67739e-17 1.02389e-15 2.68197e-15 -9.49025e-16 -6.67811e-16 -4.67739e-17 1.02389e-15 2.68197e-15 -8.06238e-16 -5.64534e-16 -2.05417e-17 9.42029e-16 2.49154e-15 -5.19516e-16 -3.51708e-16 4.4041e-17 7.91334e-16 2.0781e-15 -1.20476e-16 -4.08211e-17 1.56232e-16 5.99234e-16 1.4481e-15 2.36173e-16 2.52332e-16 3.01062e-16 3.96028e-16 8.56725e-16 
</DataArray>
<DataArray Name="Stress_12" format="ascii" type="Float64">
-2.39695e-16 -6.2371e-16 -5.84554e-16 -3.91221e-16 -1.35905e-16 -4.57149e-16 -8.80754e-16 -8.97626e-16 -6.31146e-16 -2.2453e-16 -3.26489e-16 -6.69572e-16 -7.02827e-16 -5.10925e-16 -1.84627e-16 -1.69597e-16 -3.78971e-16 -4.12592e-16 -3.05767e-16 -1.11705e-16 -5.08919e-17 -1.19221e-16 -1.32999e-16 -9.97441e-17 -3.66314e-17 5.08919e-17 1.19221e-16 1.32999e-16 9.97441e-17 3.66314e-17 1.69597e-16 3.78971e-16 4.12592e-16 3.05767e-16 1.11705e-16 3.26489e-16 6.69572e-16 7.02827e-16 5.10925e-16 1.84627e-16 4.57149e-16 8.80754e-16 8.97626e-16 6.31146e-16 2.2453e-16 2.39695e-16 6.2371e-16 5.84554e-16 3.91221e-16 1.35905e-16 1.35905e-16 3.91221e-16 5.84554e-16 6.2371e-16 2.39695e-16 2.2453e-16 6.31146e-16 8.97626e-16 8.80754e-16 4.57149e-16 1.84627e-16 5.10925e-16 7.02827e-16 6.69572e-16 3.26489e-16 1.11705e-16 3.05767e-16 4.12592e-16 3.78971e-16 1.69597e-16 3.66314e-17 9.97441e-17 1.32999e-16 1.19221e-16 5.08919e-17 -3.66314e-17 -9.97441e-17 -1.32999e-16 -1.19221e-16 -5.08919e-17 -1.11705e-16 -3.05767e-16 -4.12592e-16 -3.78971e-16 -1.69597e-16 -1.84627e-16 -5.10925e-16 -7.02827e-16 -6.69572e-16 -3.26489e-16 -2.2453e-16 -6.31146e-16 -8.97626e-16 -8.80754e-16 -4.57149e-16 -1.35905e-16 -3.91221e-16 -5.84554e-16 -6.2371e-16 -2.39695e-16 
</DataArray>
<DataArray Name="Stress_13" format="ascii" type="Float64">
-22.275 32.1865 71.1928 96.6572 109.262 -27.0767 22.8502 60.3177 85.1194 97.4656 -28.9293 17.7323 53.312 77.1935 89.1606 -29.9373 14.9335 49.2022 72.3147 83.9419 -30.3843 13.6644 47.2991 70.0044 81.4398 -30.3843 13.6644 47.2991 70.0044 81.4398 -29.9373 14.9335 49.2022 72.3147 83.9419 -28.9293 17.7323 53.312 77.1935 89.1606 -27.0767 22.8502 60.3177 85.1194 97.4656 -22.275 32.1865 71.1928 96.6572 109.262 109.262 96.6572 71.1928 32.1865 -22.275 97.4656 85.1194 60.3177 22.8502 -27.0767 89.1606 77.1935 53.312 17.7323 -28.9293 83.9419 72.3147 49.2022 14.9335 -29.9373 81.4398 70.0044 47.2991 13.6644 -30.3843 81.4398 70.0044 47.2991 13.6644 -30.3843 83.9419 72.3147 49.2022 14.9335 -29.9373 89.1606 77.1935 53.312 17.7323 -28.9293 97.4656 85.1194 60.3177 22.8502 -27.0767 109.262 96.6572 71.1928 32.1865 -22.275 
</DataArray>
<DataArray Name="Stress_23" format="ascii" type="Float64">
-5.72772 -2.22278 -1.09187 -0.508735 -0.149321 -10.7352 -5.4265 -2.73968 -1.29981 -0.383712 -10.283 -5.90453 -3.1904 -1.55234 -0.462828 -7.09435 -4.30445 -2.43464 -1.21526 -0.36592 -2.50919 -1.55703 -0.898516 -0.454853 -0.137834 2.50919 1.55703 0.898516 0.454853 0.137834 7.09435 4.30445 2.43464 1.21526 0.36592 10.283 5.90453 3.1904 1.55234 0.462828 10.7352 5.4265 2.73968 1.29981 0.383712 5.72772 2.22278 1.09187 0.508735 0.149321 0.149321 0.508735 1.09187 2.22278 5.72772 0.383712 1.29981 2.73968 5.4265 10.7352 0.462828 1.55234 3.1904 5.90453 10.283 0.36592 1.21526 2.43464 4.30445 7.09435 0.137834 0.454853 0.898516 1.55703 2.50919 -0.137834 -0.454853 -0.898516 -1.55703 -2.50919 -0.36592 -1.21526 -2.43464 -4.30445 -7.09435 -0.462828 -1.55234 -3.1904 -5.90453 -10.283 -0.383712 -1.29981 -2.73968 -5.4265 -10.7352 -0.149321 -0.508735 -1.09187 -2.22278 -5.72772 
</DataArray>
<DataArray Name="Stress_33" format="ascii" type="Float64">
-1.17096e-15 -6.64548e-16 -2.10856e-16 9.90232e-17 2.57075e-16 -1.05812e-15 -7.13346e-16 -4.057e-16 -1.74866e-16 -5.43154e-17 -9.08648e-16 -7.05151e-16 -4.96787e-16 -3.3235e-16 -2.42642e-16 -8.06124e-16 -6.80344e-16 -5.36304e-16 -4.15874e-16 -3.48151e-16 -7.58391e-16 -6.6391e-16 -5.50297e-16 -4.51625e-16 -3.9504e-16 -7.58391e-16 -6.6391e-16 -5.50297e-16 -4.51625e-16 -3.9504e-16 -8.06124e-16 -6.80344e-16 -5.36304e-16 -4.15874e-16 -3.48151e-16 -9.08648e-16 -7.05151e-16 -4.96787e-16 -3.3235e-16 -2.42642e-16 -1.05812e-15 -7.13346e-16 -4.057e-16 -1.74866e-16 -5.43154e-17 -1.17096e-15 -6.64548e-16 -2.10856e-16 9.90232e-17 2.57075e-16 2.57075e-16 9.90232e-17 -2.10856e-16 -6.64548e-16 -1.17096e-15 -5.43154e-17 -1.74866e-16 -4.057e-16 -7.13346e-16 -1.05812e-15 -2.42642e-16 -3.3235e-16 -4.96787e-16 -7.05151e-16 -9.08648e-16 -3.48151e-16 -4.15874e-16 -5.36304e-16 -6.80344e-16 -8.06124e-16 -3.9504e-16 -4.51625e-16 -5.50297e-16 -6.6391e-16 -7.58391e-16 -3.9504e-16 -4.51625e-16 -5.50297e-16 -6.6391e-16 -7.58391e-16 -3.48151e-16 -4.15874e-16 -5.36304e-16 -6.80344e-16 -8.06124e-16 -2.42642e-16 -3.3235e-16 -4.96787e-16 -7.05151e-16 -9.08648e-16 -5.43154e-17 -1.74866e-16 -4.057e-16 -7.13346e-16 -1.05812e-15 2.57075e-16 9.90232e-17 -2.10856e-16 -6.64548e-16 -1.17096e-15 
</DataArray>
</CellData>
<Points>
<DataArray NumberOfComponents="3" format="ascii" type="Float64">
-0.05 -0.05 0 -0.05 0 0 -0.05 -0.04 0 -0.05 -0.03 0 -0.05 -0.02 0 -0.05 -0.01 0 0 0 0 -0.04 0 0 -0.03 0 0 -0.02 0 0 -0.01 0 0 0 -0.05 0 0 -0.01 0 0 -0.02 0 0 -0.03 0 0 -0.04 0 -0.01 -0.05 0 -0.02 -0.05 0 -0.03 -0.05 0 -0.04 -0.05 0 -0.04 -0.04 0 -0.04 -0.03 0 -0.04 -0.02 0 -0.04 -0.01 0 -0.03 -0.04 0 -0.03 -0.03 0 -0.03 -0.02 0 -0.03 -0.01 0 -0.02 -0.04 0 -0.02 -0.03 0 -0.02 -0.02 0 -0.02 -0.01 0 -0.01 -0.04 0 -0.01 -0.03 0 -0.01 -0.02 0 -0.01 -0.01 0 -0.05 0.05 0 -0.05 0.01 0 -0.05 0.02 0 -0.05 0.03 0 -0.05 0.04 0 0 0.05 0 -0.04 0.05 0 -0.03 0.05 0 -0.02 0.05 0 -0.01 0.05 0 0 0.04 0 0 0.03 0 0 0.02 0 0 0.01 0 -0.04 0.01 0 -0.04 0.02 0 -0.04 0.03 0 -0.04 0.04 0 -0.03 0.01 0 -0.03 0.02 0 -0.03 0.03 0 -0.03 0.04 0 -0.02 0.01 0 -0.02 0.02 0 -0.02 0.03 0 -0.02 0.04 0 -0.01 0.01 0 -0.01 0.02 0 -0.01 0.03 0 -0.01 0.04 0 0.05 0 0 0.01 0 0 0.02 0 0 0.03 0 0 0.04 0 0 0.05 -0.05 0 0.05 -0.01 0 0.05 -0.02 0 0.05 -0.03 0 0.05 -0.04 0 0.04 -0.05 0 0.03 -0.05 0 0.02 -0.05 0 0.01 -0.05 0 0.01 -0.04 0 0.01 -0.03 0 0.01 -0.02 0 0.01 -0.01 0 0.02 -0.04 0 0.02 -0.03 0 0.02 -0.02 0 0.02 -0.01 0 0.03 -0.04 0 0.03 -0.03 0 0.03 -0.02 0 0.03 -0.01 0 0.04 -0.04 0 0.04 -0.03 0 0.04 -0.02 0 0.04 -0.01 0 0.05 0.05 0 0.01 0.05 0 0.02 0.05 0 0.03 0.05 0 0.04 0.05 0 0.05 0.04 0 0.05 0.03 0 0.05 0.02 0 0.05 0.01 0 0.01 0.01 0 0.01 0.02 0 0.01 0.03 0 0.01 0.04 0 0.02 0.01 0 0.02 0.02 0 0.02 0.03 0 0.02 0.04 0 0.03 0.01 0 0.03 0.02 0 0.03 0.03 0 0.03 0.04 0 0.04 0.01 0 0.04 0.02 0 0.04 0.03 0 0.04 0.04 0 
</DataArray>
</Points>
<Cells>
<DataArray Name="connectivity" format="ascii" type="Int64">
0 19 20 2 19 18 24 20 18 17 28 24 17 16 32 28 16 11 15 32 2 20 21 3 20 24 25 21 24 28 29 25 28 32 33 29 32 15 14 33 3 21 22 4 21 25 26 22 25 29 30 26 29 33 34 30 33 14 13 34 4 22 23 5 22 26 27 23 26 30 31 27 30 34 35 31 34 13 12 35 5 23 7 1 23 27 8 7 27 31 9 8 31 35 10 9 35 12 6 10 1 7 50 37 7 8 54 50 8 9 58 54 9 10 62 58 10 6 49 62 37 50 51 38 50 54 55 51 54 58 59 55 58 62 63 59 62 49 48 63 38 51 52 39 51 55 56 52 55 59 60 56 59 63 64 60 63 48 47 64 39 52 53 40 52 56 57 53 56 60 61 57 60 64 65 61 64 47 46 65 40 53 42 36 53 57 43 42 57 61 44 43 61 65 45 44 65 46 41 45 11 79 80 15 79 78 84 80 78 77 88 84 77 76 92 88 76 71 75 92 15 80 81 14 80 84 85 81 84 88 89 85 88 92 93 89 92 75 74 93 14 81 82 13 81 85 86 82 85 89 90 86 89 93 94 90 93 74 73 94 13 82 83 12 82 86 87 83 86 90 91 87 90 94 95 91 94 73 72 95 12 83 67 6 83 87 68 67 87 91 69 68 91 95 70 69 95 72 66 70 6 67 105 49 67 68 109 105 68 69 113 109 69 70 117 113 70 66 104 117 49 105 106 48 105 109 110 106 109 113 114 110 113 117 118 114 117 104 103 118 48 106 107 47 106 110 111 107 110 114 115 111 114 118 119 115 118 103 102 119 47 107 108 46 107 111 112 108 111 115 116 112 115 119 120 116 119 102 101 120 46 108 97 41 108 112 98 97 112 116 99 98 116 120 100 99 120 101 96 100 
</DataArray>
<DataArray Name="offsets" format="ascii" type="Int64">
4 8 12 16 20 24 28 32 36 40 44 48 52 56 60 64 68 72 76 80 84 88 92 96 100 104 108 112 116 120 124 128 132 136 140 144 148 152 156 160 164 168 172 176 180 184 188 192 196 200 204 208 212 216 220 224 228 232 236 240 244 248 252 256 260 264 268 272 276 280 284 288 292 296 300 304 308 312 316 320 324 328 332 336 340 344 348 352 356 360 364 368 372 376 380 384 388 392 396 400 
</DataArray>
<DataArray Name="types" format="ascii" type="Int8">
9 9 9 9 9 9 9 9 9 9 9 9 9 9 9 9 9 9 9 9 9 9 9 9 9 9 9 9 9 9 9 9 9 9 9 9 9 9 9 9 9 9 9 9 9 9 9 9 9 9 9 9 9 9 9 9 9 9 9 9 9 9 9 9 9 9 9 9 9 9 9 9 9 9 9 9 9 9 9 9 9 9 9 9 9 9 9 9 9 9 9 9 9 9 9 9 9 9 9 9 
</DataArray>
</Cells>
</Piece>
</UnstructuredGrid>
</VTKFile>
