<?xml version="1.0"?>
<VTKFile byte_order="LittleEndian" type="UnstructuredGrid" version="0.1">
<UnstructuredGrid>
<Piece NumberOfCells="100" NumberOfPoints="121">
<PointData>
<DataArray Name="Warping_X" format="ascii" type="Float64">
-0.157587 0.164919 -0.0421007 0.0484651 0.11316 0.15198 0.105509 0.143521 0.126884 0.115005 0.107882 -0.217865 0.0925775 0.0537903 -0.0108339 -0.10131 -0.21545 -0.208204 -0.196117 -0.179195 -0.0634473 0.0270651 0.091763 0.130582 -0.0799743 0.010459 0.0751349 0.113946 -0.0918166 -0.001373 0.0632713 0.102071 -0.0989348 -0.00846892 0.0561599 0.0949502 -0.157587 0.15198 0.11316 0.0484651 -0.0421007 -0.217865 -0.179195 -0.196117 -0.208204 -0.21545 -0.10131 -0.0108339 0.0537903 0.0925775 0.130582 0.091763 0.0270651 -0.0634473 0.113946 0.0751349 0.010459 -0.0799743 0.102071 0.0632713 -0.001373 -0.0918166 0.0949502 0.0561599 -0.00846892 -0.0989348 0.164919 0.107882 0.115005 0.126884 0.143521 -0.157587 0.15198 0.11316 0.0484651 -0.0421007 -0.179195 -0.196117 -0.208204 -0.21545 -0.0989348 -0.00846892 0.0561599 0.0949502 -0.0918166 -0.001373 0.0632713 0.102071 -0.0799743 0.010459 0.0751349 0.113946 -0.0634473 0.0270651 0.091763 0.130582 -0.157587 -0.21545 -0.208204 -0.196117 -0.179195 -0.0421007 0.0484651 0.11316 0.15198 0.0949502 0.0561599 -0.00846892 -0.0989348 0.102071 0.0632713 -0.001373 -0.0918166 0.113946 0.0751349 0.010459 -0.0799743 0.130582 0.091763 0.0270651 -0.0634473 
</DataArray>
<DataArray Name="Warping_Y" format="ascii" type="Float64">
0.644802 -9.44108e-17 0.516827 0.387925 0.258688 0.129359 1.48404e-16 -4.2961e-17 2.24443e-17 9.98159e-17 1.21865e-16 2.70704e-16 1.90212e-16 2.27773e-16 2.55432e-16 2.74715e-16 0.129752 0.259424 0.388877 0.517991 0.414006 0.310464 0.206991 0.1035 0.310973 0.233084 0.155342 0.0776619 0.207462 0.155516 0.103632 0.0518043 0.103773 0.0777923 0.0518395 0.025913 -0.644802 -0.129359 -0.258688 -0.387925 -0.516827 2.48601e-17 -0.517991 -0.388877 -0.259424 -0.129752 3.37729e-17 4.88622e-17 6.08123e-17 1.0418e-16 -0.1035 -0.206991 -0.310464 -0.414006 -0.0776619 -0.155342 -0.233084 -0.310973 -0.0518043 -0.103632 -0.155516 -0.207462 -0.025913 -0.0518395 -0.0777923 -0.103773 -1.44992e-16 1.46701e-16 1.03179e-16 4.96503e-17 -2.75783e-17 -0.644802 -0.129359 -0.258688 -0.387925 -0.516827 -0.517991 -0.388877 -0.259424 -0.129752 -0.103773 -0.0777923 -0.0518395 -0.025913 -0.207462 -0.155516 -0.103632 -0.0518043 -0.310973 -0.233084 -0.155342 -0.0776619 -0.414006 -0.310464 -0.206991 -0.1035 0.644802 0.129752 0.259424 0.388877 0.517991 0.516827 0.387925 0.258688 0.129359 0.025913 0.0518395 0.0777923 0.103773 0.0518043 0.103632 0.155516 0.207462 0.0776619 0.155342 0.233084 0.310973 0.1035 0.206991 0.310464 0.414006 
</DataArray>
<DataArray Name="Warping_Z" format="ascii" type="Float64">
0 0 0 0 0 0 0 0 0 0 0 0 0 0 0 0 0 0 0 0 0 0 0 0 0 0 0 0 0 0 0 0 0 0 0 0 0 0 0 0 0 0 0 0 0 0 0 0 0 0 0 0 0 0 0 0 0 0 0 0 0 0 0 0 0 0 0 0 0 0 0 0 0 0 0 0 0 0 0 0 0 0 0 0 0 0 0 0 0 0 0 0 0 0 0 0 0 0 0 0 0 0 0 0 0 0 0 0 0 0 0 0 0 0 0 0 0 0 0 0 0 
</DataArray>
</PointData>
<CellData>
<DataArray Name="MaterialId" format="ascii" type="Float64">
3 3 3 3 3 3 3 3 3 3 3 3 3 3 3 3 3 3 3 3 3 3 3 3 3 3 3 3 3 3 3 3 3 3 3 3 3 3 3 3 3 3 3 3 3 3 3 3 3 3 3 3 3 3 3 3 3 3 3 3 3 3 3 3 3 3 3 3 3 3 3 3 3 3 3 3 3 3 3 3 3 3 3 3 3 3 3 3 3 3 3 3 3 3 3 3 3 3 3 3 
</DataArray>
<DataArray Name="FiberAngle" format="ascii" type="Float64">
90 90 90 90 90 90 90 90 90 90 90 90 90 90 90 90 90 90 90 90 90 90 90 90 90 90 90 90 90 90 90 90 90 90 90 90 90 90 90 90 90 90 90 90 90 90 90 90 90 90 90 90 90 90 90 90 90 90 90 90 90 90 90 90 90 90 90 90 90 90 90 90 90 90 90 90 90 90 90 90 90 90 90 90 90 90 90 90 90 90 90 90 90 90 90 90 90 90 90 90 
</DataArray>
<DataArray Name="Strain_11" format="ascii" type="Float64">
-2.1477 -1.67247 -1.19645 -0.718219 -0.239457 -2.13733 -1.65665 -1.18372 -0.710706 -0.236988 -2.13985 -1.66171 -1.18478 -0.710367 -0.236728 -2.13976 -1.66321 -1.18692 -0.711604 -0.237115 -2.1398 -1.6637 -1.18765 -0.71219 -0.23732 -2.1398 -1.6637 -1.18765 -0.71219 -0.23732 -2.13976 -1.66321 -1.18692 -0.711604 -0.237115 -2.13985 -1.66171 -1.18478 -0.710367 -0.236728 -2.13733 -1.65665 -1.18372 -0.710706 -0.236988 -2.1477 -1.67247 -1.19645 -0.718219 -0.239457 0.239457 0.718219 1.19645 1.67247 2.1477 0.236988 0.710706 1.18372 1.65665 2.13733 0.236728 0.710367 1.18478 1.66171 2.13985 0.237115 0.711604 1.18692 1.66321 2.13976 0.23732 0.71219 1.18765 1.6637 2.1398 0.23732 0.71219 1.18765 1.6637 2.1398 0.237115 0.711604 1.18692 1.66321 2.13976 0.236728 0.710367 1.18478 1.66171 2.13985 0.236988 0.710706 1.18372 1.65665 2.13733 0.239457 0.718219 1.19645 1.67247 2.1477 
</DataArray>
<DataArray Name="Strain_22" format="ascii" type="Float64">
-11.598 -9.09443 -6.49327 -3.89702 -1.29896 -11.6222 -9.07153 -6.49175 -3.89632 -1.29902 -11.6355 -9.06074 -6.48129 -3.89184 -1.29764 -11.641 -9.05858 -6.47543 -3.88773 -1.29633 -11.6429 -9.05811 -6.47331 -3.88587 -1.29565 -11.6429 -9.05811 -6.47331 -3.88587 -1.29565 -11.641 -9.05858 -6.47543 -3.88773 -1.29633 -11.6355 -9.06074 -6.48129 -3.89184 -1.29764 -11.6222 -9.07153 -6.49175 -3.89632 -1.29902 -11.598 -9.09443 -6.49327 -3.89702 -1.29896 1.29896 3.89702 6.49327 9.09443 11.598 1.29902 3.89632 6.49175 9.07153 11.6222 1.29764 3.89184 6.48129 9.06074 11.6355 1.29633 3.88773 6.47543 9.05858 11.641 1.29565 3.88587 6.47331 9.05811 11.6429 1.29565 3.88587 6.47331 9.05811 11.6429 1.29633 3.88773 6.47543 9.05858 11.641 1.29764 3.89184 6.48129 9.06074 11.6355 1.29902 3.89632 6.49175 9.07153 11.6222 1.29896 3.89702 6.49327 9.09443 11.598 
</DataArray>
<DataArray Name="Strain_12" format="ascii" type="Float64">
0.0800873 -0.0127752 -0.0216834 -0.0229215 -0.0227072 0.0398432 0.0266136 -0.0100708 -0.0252122 -0.0311738 0.0117815 0.0172238 0.00213731 -0.0121988 -0.0189439 0.00419862 0.00711209 0.00214774 -0.00471061 -0.00874783 0.00103744 0.00195506 0.000736402 -0.00123643 -0.00249247 -0.00103744 -0.00195506 -0.000736402 0.00123643 0.00249247 -0.00419862 -0.00711209 -0.00214774 0.00471061 0.00874783 -0.0117815 -0.0172238 -0.00213731 0.0121988 0.0189439 -0.0398432 -0.0266136 0.0100708 0.0252122 0.0311738 -0.0800873 0.0127752 0.0216834 0.0229215 0.0227072 -0.0227072 -0.0229215 -0.0216834 -0.0127752 0.0800873 -0.0311738 -0.0252122 -0.0100708 0.0266136 0.0398432 -0.0189439 -0.0121988 0.00213731 0.0172238 0.0117815 -0.00874783 -0.00471061 0.00214774 0.00711209 0.00419862 -0.00249247 -0.00123643 0.000736402 0.00195506 0.00103744 0.00249247 0.00123643 -0.000736402 -0.00195506 -0.00103744 0.00874783 0.00471061 -0.00214774 -0.00711209 -0.00419862 0.0189439 0.0121988 -0.00213731 -0.0172238 -0.0117815 0.0311738 0.0252122 0.0100708 -0.0266136 -0.0398432 0.0227072 0.0229215 0.0216834 0.0127752 -0.0800873 
</DataArray>
<DataArray Name="Strain_13" format="ascii" type="Float64">
-2.58717e-16 -2.02379e-16 -1.44483e-16 -8.67216e-17 -2.89085e-17 -2.59901e-16 -2.0305e-16 -1.44904e-16 -8.68932e-17 -2.89596e-17 -2.60194e-16 -2.02957e-16 -1.45261e-16 -8.7154e-17 -2.9049e-17 -2.60303e-16 -2.02807e-16 -1.45198e-16 -8.72438e-17 -2.90954e-17 -2.60351e-16 -2.02754e-16 -1.45109e-16 -8.72168e-17 -2.90992e-17 -2.60351e-16 -2.02754e-16 -1.45109e-16 -8.72168e-17 -2.90992e-17 -2.60303e-16 -2.02807e-16 -1.45198e-16 -8.72438e-17 -2.90954e-17 -2.60194e-16 -2.02957e-16 -1.45261e-16 -8.7154e-17 -2.9049e-17 -2.59901e-16 -2.0305e-16 -1.44904e-16 -8.68932e-17 -2.89596e-17 -2.58717e-16 -2.02379e-16 -1.44483e-16 -8.67216e-17 -2.89085e-17 2.89085e-17 8.67216e-17 1.44483e-16 2.02379e-16 2.58717e-16 2.89596e-17 8.68932e-17 1.44904e-16 2.0305e-16 2.59901e-16 2.9049e-17 8.7154e-17 1.45261e-16 2.02957e-16 2.60194e-16 2.90954e-17 8.72438e-17 1.45198e-16 2.02807e-16 2.60303e-16 2.90992e-17 8.72168e-17 1.45109e-16 2.02754e-16 2.60351e-16 2.90992e-17 8.72168e-17 1.45109e-16 2.02754e-16 2.60351e-16 2.90954e-17 8.72438e-17 1.45198e-16 2.02807e-16 2.60303e-16 2.9049e-17 8.7154e-17 1.45261e-16 2.02957e-16 2.60194e-16 2.89596e-17 8.68932e-17 1.44904e-16 2.0305e-16 2.59901e-16 2.89085e-17 8.67216e-17 1.44483e-16 2.02379e-16 2.58717e-16 
</DataArray>
<DataArray Name="Strain_23" format="ascii" type="Float64">
1.7542e-18 1.43126e-19 -5.75144e-19 -6.54131e-19 -6.68055e-19 6.65332e-19 4.22925e-19 4.94903e-20 -4.64509e-19 -6.73238e-19 -2.81963e-20 1.30625e-20 1.21546e-19 1.75626e-20 -1.23975e-19 -9.61797e-20 -9.51867e-20 1.03906e-20 8.77936e-20 9.31822e-20 -4.27903e-20 -3.97216e-20 -3.92991e-21 3.43463e-20 5.20954e-20 4.27903e-20 3.97216e-20 3.92991e-21 -3.43463e-20 -5.20954e-20 9.61797e-20 9.51867e-20 -1.03906e-20 -8.77936e-20 -9.31822e-20 2.81963e-20 -1.30625e-20 -1.21546e-19 -1.75626e-20 1.23975e-19 -6.65332e-19 -4.22925e-19 -4.94903e-20 4.64509e-19 6.73238e-19 -1.7542e-18 -1.43126e-19 5.75144e-19 6.54131e-19 6.68055e-19 -6.68055e-19 -6.54131e-19 -5.75144e-19 1.43126e-19 1.7542e-18 -6.73238e-19 -4.64509e-19 4.94903e-20 4.22925e-19 6.65332e-19 -1.23975e-19 1.75626e-20 1.21546e-19 1.30625e-20 -2.81963e-20 9.31822e-20 8.77936e-20 1.03906e-20 -9.51867e-20 -9.61797e-20 5.20954e-20 3.43463e-20 -3.92991e-21 -3.97216e-20 -4.27903e-20 -5.20954e-20 -3.43463e-20 3.92991e-21 3.97216e-20 4.27903e-20 -9.31822e-20 -8.77936e-20 -1.03906e-20 9.51867e-20 9.61797e-20 1.23975e-19 -1.75626e-20 -1.21546e-19 -1.30625e-20 2.81963e-20 6.73238e-19 4.64509e-19 -4.94903e-20 -4.22925e-19 -6.65332e-19 6.68055e-19 6.54131e-19 5.75144e-19 -1.43126e-19 -1.7542e-18 
</DataArray>
<DataArray Name="Strain_33" format="ascii" type="Float64">
0.045 0.035 0.025 0.015 0.005 0.045 0.035 0.025 0.015 0.005 0.045 0.035 0.025 0.015 0.005 0.045 0.035 0.025 0.015 0.005 0.045 0.035 0.025 0.015 0.005 0.045 0.035 0.025 0.015 0.005 0.045 0.035 0.025 0.015 0.005 0.045 0.035 0.025 0.015 0.005 0.045 0.035 0.025 0.015 0.005 0.045 0.035 0.025 0.015 0.005 -0.005 -0.015 -0.025 -0.035 -0.045 -0.005 -0.015 -0.025 -0.035 -0.045 -0.005 -0.015 -0.025 -0.035 -0.045 -0.005 -0.015 -0.025 -0.035 -0.045 -0.005 -0.015 -0.025 -0.035 -0.045 -0.005 -0.015 -0.025 -0.035 -0.045 -0.005 -0.015 -0.025 -0.035 -0.045 -0.005 -0.015 -0.025 -0.035 -0.045 -0.005 -0.015 -0.025 -0.035 -0.045 -0.005 -0.015 -0.025 -0.035 -0.045 
</DataArray>
<DataArray Name="Stress_11" format="ascii" type="Float64">
-1421.53 -1108.97 -792.93 -475.963 -158.678 -1417.19 -1100.46 -786.617 -472.244 -157.465 -1418.85 -1102.61 -786.81 -471.936 -157.293 -1418.98 -1103.27 -787.679 -472.415 -157.442 -1419.06 -1103.5 -787.967 -472.645 -157.522 -1419.06 -1103.5 -787.967 -472.645 -157.522 -1418.98 -1103.27 -787.679 -472.415 -157.442 -1418.85 -1102.61 -786.81 -471.936 -157.293 -1417.19 -1100.46 -786.617 -472.244 -157.465 -1421.53 -1108.97 -792.93 -475.963 -158.678 158.678 475.963 792.93 1108.97 1421.53 157.465 472.244 786.617 1100.46 1417.19 157.293 471.936 786.81 1102.61 1418.85 157.442 472.415 787.679 1103.27 1418.98 157.522 472.645 787.967 1103.5 1419.06 157.522 472.645 787.967 1103.5 1419.06 157.442 472.415 787.679 1103.27 1418.98 157.293 471.936 786.81 1102.61 1418.85 157.465 472.244 786.617 1100.46 1417.19 158.678 475.963 792.93 1108.97 1421.53 
</DataArray>
<DataArray Name="Stress_22" format="ascii" type="Float64">
-1582.4 -1240.47 -885.746 -531.597 -177.195 -1585.24 -1236.97 -885.144 -531.268 -177.124 -1587.06 -1235.72 -883.81 -530.671 -176.936 -1587.78 -1235.49 -883.113 -530.174 -176.776 -1588.03 -1235.44 -882.858 -529.948 -176.694 -1588.03 -1235.44 -882.858 -529.948 -176.694 -1587.78 -1235.49 -883.113 -530.174 -176.776 -1587.06 -1235.72 -883.81 -530.671 -176.936 -1585.24 -1236.97 -885.144 -531.268 -177.124 -1582.4 -1240.47 -885.746 -531.597 -177.195 177.195 531.597 885.746 1240.47 1582.4 177.124 531.268 885.144 1236.97 1585.24 176.936 530.671 883.81 1235.72 1587.06 176.776 530.174 883.113 1235.49 1587.78 176.694 529.948 882.858 1235.44 1588.03 176.694 529.948 882.858 1235.44 1588.03 176.776 530.174 883.113 1235.49 1587.78 176.936 530.671 883.81 1235.72 1587.06 177.124 531.268 885.144 1236.97 1585.24 177.195 531.597 885.746 1240.47 1582.4 
</DataArray>
<DataArray Name="Stress_12" format="ascii" type="Float64">
4.80524 -0.76651 -1.30101 -1.37529 -1.36243 2.39059 1.59682 -0.60425 -1.51273 -1.87043 0.706889 1.03343 0.128238 -0.731927 -1.13663 0.251917 0.426725 0.128864 -0.282637 -0.52487 0.0622463 0.117303 0.0441841 -0.0741855 -0.149548 -0.0622463 -0.117303 -0.0441841 0.0741855 0.149548 -0.251917 -0.426725 -0.128864 0.282637 0.52487 -0.706889 -1.03343 -0.128238 0.731927 1.13663 -2.39059 -1.59682 0.60425 1.51273 1.87043 -4.80524 0.76651 1.30101 1.37529 1.36243 -1.36243 -1.37529 -1.30101 -0.76651 4.80524 -1.87043 -1.51273 -0.60425 1.59682 2.39059 -1.13663 -0.731927 0.128238 1.03343 0.706889 -0.52487 -0.282637 0.128864 0.426725 0.251917 -0.149548 -0.0741855 0.0441841 0.117303 0.0622463 0.149548 0.0741855 -0.0441841 -0.117303 -0.0622463 0.52487 0.282637 -0.128864 -0.426725 -0.251917 1.13663 0.731927 -0.128238 -1.03343 -0.706889 1.87043 1.51273 0.60425 -1.59682 -2.39059 1.36243 1.37529 1.30101 0.76651 -4.80524 
</DataArray>
<DataArray Name="Stress_13" format="ascii" type="Float64">
-5.74584e-14 -4.4784e-14 -3.20228e-14 -1.92226e-14 -6.4087e-15 -5.73075e-14 -4.44999e-14 -3.17831e-14 -1.90765e-14 -6.36028e-15 -5.73743e-14 -4.46023e-14 -3.18292e-14 -1.90861e-14 -6.36056e-15 -5.73776e-14 -4.4625e-14 -3.18714e-14 -1.91183e-14 -6.37172e-15 -5.7381e-14 -4.46323e-14 -3.18817e-14 -1.91294e-14 -6.37639e-15 -5.7381e-14 -4.46323e-14 -3.18817e-14 -1.91294e-14 -6.37639e-15 -5.73776e-14 -4.4625e-14 -3.18714e-14 -1.91183e-14 -6.37172e-15 -5.73743e-14 -4.46023e-14 -3.18292e-14 -1.90861e-14 -6.36056e-15 -5.73075e-14 -4.44999e-14 -3.17831e-14 -1.90765e-14 -6.36028e-15 -5.74584e-14 -4.4784e-14 -3.20228e-14 -1.92226e-14 -6.4087e-15 6.4087e-15 1.92226e-14 3.20228e-14 4.4784e-14 5.74584e-14 6.36028e-15 1.90765e-14 3.17831e-14 4.44999e-14 5.73075e-14 6.36056e-15 1.90861e-14 3.18292e-14 4.46023e-14 5.73743e-14 6.37172e-15 1.91183e-14 3.18714e-14 4.4625e-14 5.73776e-14 6.37639e-15 1.91294e-14 3.18817e-14 4.46323e-14 5.7381e-14 6.37639e-15 1.91294e-14 3.18817e-14 4.46323e-14 5.7381e-14 6.37172e-15 1.91183e-14 3.18714e-14 4.4625e-14 5.73776e-14 6.36056e-15 1.90861e-14 3.18292e-14 4.46023e-14 5.73743e-14 6.36028e-15 1.90765e-14 3.17831e-14 4.44999e-14 5.73075e-14 6.4087e-15 1.92226e-14 3.20228e-14 4.4784e-14 5.74584e-14 
</DataArray>
<DataArray Name="Stress_23" format="ascii" type="Float64">
1.3675e-16 -6.66231e-19 -4.20345e-17 -4.67419e-17 -4.73069e-17 5.76635e-17 3.74424e-17 -3.69209e-18 -3.86635e-17 -5.27503e-17 5.80426e-18 1.11997e-17 7.38603e-18 -6.59147e-18 -1.77985e-17 -2.23807e-18 -4.04438e-19 1.83464e-18 1.50526e-18 -6.97393e-19 -1.50427e-18 -7.88953e-19 2.5442e-19 9.60224e-19 1.07857e-18 1.50427e-18 7.88953e-19 -2.5442e-19 -9.60224e-19 -1.07857e-18 2.23807e-18 4.04438e-19 -1.83464e-18 -1.50526e-18 6.97393e-19 -5.80426e-18 -1.11997e-17 -7.38603e-18 6.59147e-18 1.77985e-17 -5.76635e-17 -3.74424e-17 3.69209e-18 3.86635e-17 5.27503e-17 -1.3675e-16 6.66231e-19 4.20345e-17 4.67419e-17 4.73069e-17 -4.73069e-17 -4.67419e-17 -4.20345e-17 -6.66231e-19 1.3675e-16 -5.27503e-17 -3.86635e-17 -3.69209e-18 3.74424e-17 5.76635e-17 -1.77985e-17 -6.59147e-18 7.38603e-18 1.11997e-17 5.80426e-18 -6.97393e-19 1.50526e-18 1.83464e-18 -4.04438e-19 -2.23807e-18 1.07857e-18 9.60224e-19 2.5442e-19 -7.88953e-19 -1.50427e-18 -1.07857e-18 -9.60224e-19 -2.5442e-19 7.88953e-19 1.50427e-18 6.97393e-19 -1.50526e-18 -1.83464e-18 4.04438e-19 2.23807e-18 1.77985e-17 6.59147e-18 -7.38603e-18 -1.11997e-17 -5.80426e-18 5.27503e-17 3.86635e-17 3.69209e-18 -3.74424e-17 -5.76635e-17 4.73069e-17 4.67419e-17 4.20345e-17 6.66231e-19 -1.3675e-16 
</DataArray>
<DataArray Name="Stress_33" format="ascii" type="Float64">
-473.547 -370.997 -264.958 -159.023 -53.0079 -474.079 -369.685 -264.502 -158.761 -52.9318 -474.63 -369.462 -264.164 -158.592 -52.8747 -474.824 -369.432 -264.024 -158.485 -52.8403 -474.893 -369.431 -263.972 -158.437 -52.8228 -474.893 -369.431 -263.972 -158.437 -52.8228 -474.824 -369.432 -264.024 -158.485 -52.8403 -474.63 -369.462 -264.164 -158.592 -52.8747 -474.079 -369.685 -264.502 -158.761 -52.9318 -473.547 -370.997 -264.958 -159.023 -53.0079 53.0079 159.023 264.958 370.997 473.547 52.9318 158.761 264.502 369.685 474.079 52.8747 158.592 264.164 369.462 474.63 52.8403 158.485 264.024 369.432 474.824 52.8228 158.437 263.972 369.431 474.893 52.8228 158.437 263.972 369.431 474.893 52.8403 158.485 264.024 369.432 474.824 52.8747 158.592 264.164 369.462 474.63 52.9318 158.761 264.502 369.685 474.079 53.0079 159.023 264.958 370.997 473.547 
</DataArray>
</CellData>
<Points>
<DataArray NumberOfComponents="3" format="ascii" type="Float64">
-0.05 -0.05 0 -0.05 0 0 -0.05 -0.04 0 -0.05 -0.03 0 -0.05 -0.02 0 -0.05 -0.01 0 0 0 0 -0.04 0 0 -0.03 0 0 -0.02 0 0 -0.01 0 0 0 -0.05 0 0 -0.01 0 0 -0.02 0 0 -0.03 0 0 -0.04 0 -0.01 -0.05 0 -0.02 -0.05 0 -0.03 -0.05 0 -0.04 -0.05 0 -0.04 -0.04 0 -0.04 -0.03 0 -0.04 -0.02 0 -0.04 -0.01 0 -0.03 -0.04 0 -0.03 -0.03 0 -0.03 -0.02 0 -0.03 -0.01 0 -0.02 -0.04 0 -0.02 -0.03 0 -0.02 -0.02 0 -0.02 -0.01 0 -0.01 -0.04 0 -0.01 -0.03 0 -0.01 -0.02 0 -0.01 -0.01 0 -0.05 0.05 0 -0.05 0.01 0 -0.05 0.02 0 -0.05 0.03 0 -0.05 0.04 0 0 0.05 0 -0.04 0.05 0 -0.03 0.05 0 -0.02 0.05 0 -0.01 0.05 0 0 0.04 0 0 0.03 0 0 0.02 0 0 0.01 0 -0.04 0.01 0 -0.04 0.02 0 -0.04 0.03 0 -0.04 0.04 0 -0.03 0.01 0 -0.03 0.02 0 -0.03 0.03 0 -0.03 0.04 0 -0.02 0.01 0 -0.02 0.02 0 -0.02 0.03 0 -0.02 0.04 0 -0.01 0.01 0 -0.01 0.02 0 -0.01 0.03 0 -0.01 0.04 0 0.05 0 0 0.01 0 0 0.02 0 0 0.03 0 0 0.04 0 0 0.05 -0.05 0 0.05 -0.01 0 0.05 -0.02 0 0.05 -0.03 0 0.05 -0.04 0 0.04 -0.05 0 0.03 -0.05 0 0.02 -0.05 0 0.01 -0.05 0 0.01 -0.04 0 0.01 -0.03 0 0.01 -0.02 0 0.01 -0.01 0 0.02 -0.04 0 0.02 -0.03 0 0.02 -0.02 0 0.02 -0.01 0 0.03 -0.04 0 0.03 -0.03 0 0.03 -0.02 0 0.03 -0.01 0 0.04 -0.04 0 0.04 -0.03 0 0.04 -0.02 0 0.04 -0.01 0 0.05 0.05 0 0.01 0.05 0 0.02 0.05 0 0.03 0.05 0 0.04 0.05 0 0.05 0.04 0 0.05 0.03 0 0.05 0.02 0 0.05 0.01 0 0.01 0.01 0 0.01 0.02 0 0.01 0.03 0 0.01 0.04 0 0.02 0.01 0 0.02 0.02 0 0.02 0.03 0 0.02 0.04 0 0.03 0.01 0 0.03 0.02 0 0.03 0.03 0 0.03 0.04 0 0.04 0.01 0 0.04 0.02 0 0.04 0.03 0 0.04 0.04 0 
</DataArray>
</Points>
<Cells>
<DataArray Name="connectivity" format="ascii" type="Int64">
0 19 20 2 19 18 24 20 18 17 28 24 17 16 32 28 16 11 15 32 2 20 21 3 20 24 25 21 24 28 29 25 28 32 33 29 32 15 14 33 3 21 22 4 21 25 26 22 25 29 30 26 29 33 34 30 33 14 13 34 4 22 23 5 22 26 27 23 26 30 31 27 30 34 35 31 34 13 12 35 5 23 7 1 23 27 8 7 27 31 9 8 31 35 10 9 35 12 6 10 1 7 50 37 7 8 54 50 8 9 58 54 9 10 62 58 10 6 49 62 37 50 51 38 50 54 55 51 54 58 59 55 58 62 63 59 62 49 48 63 38 51 52 39 51 55 56 52 55 59 60 56 59 63 64 60 63 48 47 64 39 52 53 40 52 56 57 53 56 60 61 57 60 64 65 61 64 47 46 65 40 53 42 36 53 57 43 42 57 61 44 43 61 65 45 44 65 46 41 45 11 79 80 15 79 78 84 80 78 77 88 84 77 76 92 88 76 71 75 92 15 80 81 14 80 84 85 81 84 88 89 85 88 92 93 89 92 75 74 93 14 81 82 13 81 85 86 82 85 89 90 86 89 93 94 90 93 74 73 94 13 82 83 12 82 86 87 83 86 90 91 87 90 94 95 91 94 73 72 95 12 83 67 6 83 87 68 67 87 91 69 68 91 95 70 69 95 72 66 70 6 67 105 49 67 68 109 105 68 69 113 109 69 70 117 113 70 66 104 117 49 105 106 48 105 109 110 106 109 113 114 110 113 117 118 114 117 104 103 118 48 106 107 47 106 110 111 107 110 114 115 111 114 118 119 115 118 103 102 119 47 107 108 46 107 111 112 108 111 115 116 112 115 119 120 116 119 102 101 120 46 108 97 41 108 112 98 97 112 116 99 98 116 120 100 99 120 101 96 100 
</DataArray>
<DataArray Name="offsets" format="ascii" type="Int64">
4 8 12 16 20 24 28 32 36 40 44 48 52 56 60 64 68 72 76 80 84 88 92 96 100 104 108 112 116 120 124 128 132 136 140 144 148 152 156 160 164 168 172 176 180 184 188 192 196 200 204 208 212 216 220 224 228 232 236 240 244 248 252 256 260 264 268 272 276 280 284 288 292 296 300 304 308 312 316 320 324 328 332 336 340 344 348 352 356 360 364 368 372 376 380 384 388 392 396 400 
</DataArray>
<DataArray Name="types" format="ascii" type="Int8">
9 9 9 9 9 9 9 9 9 9 9 9 9 9 9 9 9 9 9 9 9 9 9 9 9 9 9 9 9 9 9 9 9 9 9 9 9 9 9 9 9 9 9 9 9 9 9 9 9 9 9 9 9 9 9 9 9 9 9 9 9 9 9 9 9 9 9 9 9 9 9 9 9 9 9 9 9 9 9 9 9 9 9 9 9 9 9 9 9 9 9 9 9 9 9 9 9 9 9 9 
</DataArray>
</Cells>
</Piece>
</UnstructuredGrid>
</VTKFile>
