<?xml version="1.0"?>
<VTKFile byte_order="LittleEndian" type="UnstructuredGrid" version="0.1">
<UnstructuredGrid>
<Piece NumberOfCells="100" NumberOfPoints="121">
<PointData>
<DataArray Name="Warping_X" format="ascii" type="Float64">
0.00197917 0.00197917 0.00197917 0.00197917 0.00197917 0.00197917 2.7247e-18 0.00158333 0.0011875 0.000791667 0.000395833 -5.93942e-18 2.32954e-18 1.21022e-18 -8.50858e-19 -2.99043e-18 0.000395833 0.000791667 0.0011875 0.00158333 0.00158333 0.00158333 0.00158333 0.00158333 0.0011875 0.0011875 0.0011875 0.0011875 0.000791667 0.000791667 0.000791667 0.000791667 0.000395833 0.000395833 0.000395833 0.000395833 0.00197917 0.00197917 0.00197917 0.00197917 0.00197917 -1.32616e-18 0.00158333 0.0011875 0.000791667 0.000395833 7.14532e-19 1.44904e-18 2.04763e-18 2.4777e-18 0.00158333 0.00158333 0.00158333 0.00158333 0.0011875 0.0011875 0.0011875 0.0011875 0.000791667 0.000791667 0.000791667 0.000791667 0.000395833 0.000395833 0.000395833 0.000395833 -0.00197917 -0.000395833 -0.000791667 -0.0011875 -0.00158333 -0.00197917 -0.00197917 -0.00197917 -0.00197917 -0.00197917 -0.00158333 -0.0011875 -0.000791667 -0.000395833 -0.000395833 -0.000395833 -0.000395833 -0.000395833 -0.000791667 -0.000791667 -0.000791667 -0.000791667 -0.0011875 -0.0011875 -0.0011875 -0.0011875 -0.00158333 -0.00158333 -0.00158333 -0.00158333 -0.00197917 -0.000395833 -0.000791667 -0.0011875 -0.00158333 -0.00197917 -0.00197917 -0.00197917 -0.00197917 -0.000395833 -0.000395833 -0.000395833 -0.000395833 -0.000791667 -0.000791667 -0.000791667 -0.000791667 -0.0011875 -0.0011875 -0.0011875 -0.0011875 -0.00158333 -0.00158333 -0.00158333 -0.00158333 
</DataArray>
<DataArray Name="Warping_Y" format="ascii" type="Float64">
0.0108333 -5.95641e-19 0.00866667 0.0065 0.00433333 0.00216667 1.48259e-18 -1.00579e-18 -7.47044e-19 -4.64007e-19 2.87829e-19 0.0108333 0.00216667 0.00433333 0.0065 0.00866667 0.0108333 0.0108333 0.0108333 0.0108333 0.00866667 0.0065 0.00433333 0.00216667 0.00866667 0.0065 0.00433333 0.00216667 0.00866667 0.0065 0.00433333 0.00216667 0.00866667 0.0065 0.00433333 0.00216667 -0.0108333 -0.00216667 -0.00433333 -0.0065 -0.00866667 -0.0108333 -0.0108333 -0.0108333 -0.0108333 -0.0108333 -0.00866667 -0.0065 -0.00433333 -0.00216667 -0.00216667 -0.00433333 -0.0065 -0.00866667 -0.00216667 -0.00433333 -0.0065 -0.00866667 -0.00216667 -0.00433333 -0.0065 -0.00866667 -0.00216667 -0.00433333 -0.0065 -0.00866667 7.68769e-19 1.92393e-18 2.07174e-18 1.44626e-18 7.36626e-19 0.0108333 0.00216667 0.00433333 0.0065 0.00866667 0.0108333 0.0108333 0.0108333 0.0108333 0.00866667 0.0065 0.00433333 0.00216667 0.00866667 0.0065 0.00433333 0.00216667 0.00866667 0.0065 0.00433333 0.00216667 0.00866667 0.0065 0.00433333 0.00216667 -0.0108333 -0.0108333 -0.0108333 -0.0108333 -0.0108333 -0.00866667 -0.0065 -0.00433333 -0.00216667 -0.00216667 -0.00433333 -0.0065 -0.00866667 -0.00216667 -0.00433333 -0.0065 -0.00866667 -0.00216667 -0.00433333 -0.0065 -0.00866667 -0.00216667 -0.00433333 -0.0065 -0.00866667 
</DataArray>
<DataArray Name="Warping_Z" format="ascii" type="Float64">
0 0 0 0 0 0 0 0 0 0 0 0 0 0 0 0 0 0 0 0 0 0 0 0 0 0 0 0 0 0 0 0 0 0 0 0 0 0 0 0 0 0 0 0 0 0 0 0 0 0 0 0 0 0 0 0 0 0 0 0 0 0 0 0 0 0 0 0 0 0 0 0 0 0 0 0 0 0 0 0 0 0 0 0 0 0 0 0 0 0 0 0 0 0 0 0 0 0 0 0 0 0 0 0 0 0 0 0 0 0 0 0 0 0 0 0 0 0 0 0 0 
</DataArray>
</PointData>
<CellData>
<DataArray Name="MaterialId" format="ascii" type="Float64">
3 3 3 3 3 3 3 3 3 3 3 3 3 3 3 3 3 3 3 3 3 3 3 3 3 3 3 3 3 3 3 3 3 3 3 3 3 3 3 3 3 3 3 3 3 3 3 3 3 3 3 3 3 3 3 3 3 3 3 3 3 3 3 3 3 3 3 3 3 3 3 3 3 3 3 3 3 3 3 3 3 3 3 3 3 3 3 3 3 3 3 3 3 3 3 3 3 3 3 3 
</DataArray>
<DataArray Name="FiberAngle" format="ascii" type="Float64">
90 90 90 90 90 90 90 90 90 90 90 90 90 90 90 90 90 90 90 90 90 90 90 90 90 90 90 90 90 90 90 90 90 90 90 90 90 90 90 90 90 90 90 90 90 90 90 90 90 90 90 90 90 90 90 90 90 90 90 90 90 90 90 90 90 90 90 90 90 90 90 90 90 90 90 90 90 90 90 90 90 90 90 90 90 90 90 90 90 90 90 90 90 90 90 90 90 90 90 90 
</DataArray>
<DataArray Name="Strain_11" format="ascii" type="Float64">
-0.0395833 -0.0395833 -0.0395833 -0.0395833 -0.0395833 -0.0395833 -0.0395833 -0.0395833 -0.0395833 -0.0395833 -0.0395833 -0.0395833 -0.0395833 -0.0395833 -0.0395833 -0.0395833 -0.0395833 -0.0395833 -0.0395833 -0.0395833 -0.0395833 -0.0395833 -0.0395833 -0.0395833 -0.0395833 -0.0395833 -0.0395833 -0.0395833 -0.0395833 -0.0395833 -0.0395833 -0.0395833 -0.0395833 -0.0395833 -0.0395833 -0.0395833 -0.0395833 -0.0395833 -0.0395833 -0.0395833 -0.0395833 -0.0395833 -0.0395833 -0.0395833 -0.0395833 -0.0395833 -0.0395833 -0.0395833 -0.0395833 -0.0395833 -0.0395833 -0.0395833 -0.0395833 -0.0395833 -0.0395833 -0.0395833 -0.0395833 -0.0395833 -0.0395833 -0.0395833 -0.0395833 -0.0395833 -0.0395833 -0.0395833 -0.0395833 -0.0395833 -0.0395833 -0.0395833 -0.0395833 -0.0395833 -0.0395833 -0.0395833 -0.0395833 -0.0395833 -0.0395833 -0.0395833 -0.0395833 -0.0395833 -0.0395833 -0.0395833 -0.0395833 -0.0395833 -0.0395833 -0.0395833 -0.0395833 -0.0395833 -0.0395833 -0.0395833 -0.0395833 -0.0395833 -0.0395833 -0.0395833 -0.0395833 -0.0395833 -0.0395833 -0.0395833 -0.0395833 -0.0395833 -0.0395833 -0.0395833 
</DataArray>
<DataArray Name="Strain_22" format="ascii" type="Float64">
-0.216667 -0.216667 -0.216667 -0.216667 -0.216667 -0.216667 -0.216667 -0.216667 -0.216667 -0.216667 -0.216667 -0.216667 -0.216667 -0.216667 -0.216667 -0.216667 -0.216667 -0.216667 -0.216667 -0.216667 -0.216667 -0.216667 -0.216667 -0.216667 -0.216667 -0.216667 -0.216667 -0.216667 -0.216667 -0.216667 -0.216667 -0.216667 -0.216667 -0.216667 -0.216667 -0.216667 -0.216667 -0.216667 -0.216667 -0.216667 -0.216667 -0.216667 -0.216667 -0.216667 -0.216667 -0.216667 -0.216667 -0.216667 -0.216667 -0.216667 -0.216667 -0.216667 -0.216667 -0.216667 -0.216667 -0.216667 -0.216667 -0.216667 -0.216667 -0.216667 -0.216667 -0.216667 -0.216667 -0.216667 -0.216667 -0.216667 -0.216667 -0.216667 -0.216667 -0.216667 -0.216667 -0.216667 -0.216667 -0.216667 -0.216667 -0.216667 -0.216667 -0.216667 -0.216667 -0.216667 -0.216667 -0.216667 -0.216667 -0.216667 -0.216667 -0.216667 -0.216667 -0.216667 -0.216667 -0.216667 -0.216667 -0.216667 -0.216667 -0.216667 -0.216667 -0.216667 -0.216667 -0.216667 -0.216667 -0.216667 
</DataArray>
<DataArray Name="Strain_12" format="ascii" type="Float64">
-8.41364e-17 1.44847e-16 4.65776e-16 2.11636e-16 -1.04083e-17 -1.44634e-16 4.17416e-16 6.70256e-16 1.97758e-16 -2.42861e-17 -4.77072e-17 3.13115e-16 3.68631e-16 3.46945e-16 1.76942e-16 1.01909e-17 1.78459e-16 5.48612e-17 2.73869e-16 1.87133e-16 -1.43193e-16 4.76365e-17 2.86786e-17 1.65677e-16 1.66345e-16 1.49626e-17 4.87897e-17 -3.29597e-17 9.36751e-17 1.1189e-16 2.16956e-18 -6.89541e-17 4.85723e-17 1.71738e-16 -1.38778e-17 8.3919e-17 1.3943e-16 8.95534e-17 2.74739e-16 -2.18991e-17 7.37281e-17 1.1278e-17 7.89276e-17 2.32453e-16 3.46945e-18 1.79764e-16 -3.0249e-16 1.60242e-16 2.08167e-17 -1.52656e-16 -1.14492e-16 -1.13622e-16 1.15361e-16 4.07637e-17 -2.61078e-16 1.17961e-16 -8.26145e-17 2.69534e-16 2.14453e-16 2.57822e-16 2.04697e-16 -7.80394e-18 5.11767e-17 1.12734e-17 2.59977e-18 5.26916e-17 7.91473e-17 -1.04299e-16 -1.20781e-16 1.36604e-17 8.46545e-18 6.27476e-17 -8.90715e-17 2.242e-18 1.24115e-16 8.84709e-17 1.73472e-18 -1.34226e-16 -1.68051e-16 -1.34224e-16 1.68268e-16 9.36751e-17 4.30211e-19 1.11457e-16 2.1901e-16 1.01266e-16 2.61291e-16 8.131e-17 -1.97106e-16 -1.41595e-16 5.89806e-17 4.22403e-16 3.84239e-16 1.43117e-16 2.472e-16 -1.2837e-16 3.05959e-16 1.56773e-16 1.62416e-16 -1.22078e-16 
</DataArray>
<DataArray Name="Strain_13" format="ascii" type="Float64">
-1.95735e-32 -9.09804e-33 2.96666e-33 7.91536e-33 6.49257e-33 -1.5783e-32 -7.4332e-33 -2.96836e-33 7.99854e-34 4.72551e-33 -1.46739e-32 -5.20007e-33 -8.13841e-33 -4.95274e-33 5.26469e-33 -2.68843e-32 -3.39845e-34 -1.31652e-32 -1.40624e-33 2.88833e-33 -2.43502e-32 -1.39189e-32 -8.927e-33 2.67496e-33 -6.03329e-34 -1.87609e-32 -1.92661e-32 -1.10545e-32 7.45338e-34 -5.89618e-34 -2.5404e-32 -1.85231e-32 -1.18143e-32 -2.25217e-33 -3.07194e-34 -2.35907e-32 -2.12029e-32 -4.53764e-33 -6.3662e-33 4.75076e-34 -2.52963e-32 -2.29216e-32 -4.35484e-33 -4.23737e-33 2.08541e-33 -2.2879e-32 -2.70751e-32 -3.14322e-33 -1.55376e-33 4.87368e-33 1.12707e-32 1.02933e-32 2.21208e-32 -4.80519e-33 -1.73752e-33 1.12179e-32 1.2253e-32 1.41895e-32 -8.91412e-33 -1.15189e-32 8.0323e-33 1.3106e-32 3.04425e-33 -1.44898e-32 9.99616e-34 2.50915e-33 7.85484e-33 -3.87814e-33 4.9746e-33 9.58933e-33 6.6495e-34 1.2576e-33 -2.10297e-33 2.00034e-32 9.50712e-33 -2.21207e-33 1.65655e-34 9.65382e-34 1.9477e-32 1.11228e-32 -3.11761e-33 -7.74698e-34 7.22287e-33 1.11187e-32 4.94326e-33 -5.14614e-34 -1.03417e-33 8.33341e-33 5.06941e-33 7.54271e-33 3.33976e-33 4.53287e-33 6.40481e-34 1.13461e-32 -4.84619e-33 1.05973e-32 9.10256e-33 1.2948e-34 7.17177e-33 -1.59473e-32 
</DataArray>
<DataArray Name="Strain_23" format="ascii" type="Float64">
3.37679e-33 8.78649e-33 9.88127e-33 2.71652e-33 -2.31797e-33 1.39129e-32 1.39585e-32 8.59349e-33 2.70771e-33 -1.14036e-33 1.4969e-33 4.79358e-33 7.22163e-33 2.18477e-33 8.19419e-34 1.02203e-32 -4.26561e-34 -3.02114e-33 5.35475e-34 3.07096e-33 5.25819e-33 4.86008e-33 -1.88625e-33 2.8765e-33 9.30554e-34 8.56232e-33 9.20257e-33 8.4742e-33 -3.45635e-34 -3.156e-34 2.51412e-33 -4.02624e-33 -3.31468e-33 1.74783e-33 -9.97281e-34 -7.89744e-33 -2.22353e-33 1.66182e-33 -2.38068e-34 -8.24716e-34 2.97028e-33 -6.12804e-33 -1.15494e-32 -7.33784e-33 -3.01203e-33 -1.37189e-32 -6.35675e-33 -3.87733e-33 -4.19361e-33 -3.04753e-33 -4.875e-33 -3.57494e-33 -7.47409e-33 -8.07744e-33 -7.96003e-33 -4.03269e-34 2.03489e-34 -1.86903e-33 -1.3306e-32 -2.73137e-32 -2.56406e-33 -5.50333e-33 -1.3723e-32 -1.90069e-32 1.94373e-33 -1.44507e-33 -9.28012e-33 -1.32341e-32 4.59184e-33 1.16953e-32 1.10726e-34 -4.95671e-34 -1.36382e-33 -2.38572e-33 5.45741e-33 -2.35908e-33 -5.72163e-33 -2.87708e-33 6.86805e-34 -6.067e-33 4.23076e-34 1.93974e-33 4.41232e-33 -1.2524e-33 -9.03647e-33 1.14019e-33 1.96705e-33 3.45533e-34 1.07148e-33 5.40568e-33 4.87775e-34 9.08234e-33 8.57796e-33 6.43572e-33 -4.01073e-33 3.49844e-33 6.73109e-33 1.12942e-32 8.75112e-33 3.92223e-33 
</DataArray>
<DataArray Name="Strain_33" format="ascii" type="Float64">
1 1 1 1 1 1 1 1 1 1 1 1 1 1 1 1 1 1 1 1 1 1 1 1 1 1 1 1 1 1 1 1 1 1 1 1 1 1 1 1 1 1 1 1 1 1 1 1 1 1 1 1 1 1 1 1 1 1 1 1 1 1 1 1 1 1 1 1 1 1 1 1 1 1 1 1 1 1 1 1 1 1 1 1 1 1 1 1 1 1 1 1 1 1 1 1 1 1 1 1 
</DataArray>
<DataArray Name="Stress_11" format="ascii" type="Float64">
5.26352 5.26352 5.26352 5.26352 5.26352 5.26352 5.26352 5.26352 5.26352 5.26352 5.26352 5.26352 5.26352 5.26352 5.26352 5.26352 5.26352 5.26352 5.26352 5.26352 5.26352 5.26352 5.26352 5.26352 5.26352 5.26352 5.26352 5.26352 5.26352 5.26352 5.26352 5.26352 5.26352 5.26352 5.26352 5.26352 5.26352 5.26352 5.26352 5.26352 5.26352 5.26352 5.26352 5.26352 5.26352 5.26352 5.26352 5.26352 5.26352 5.26352 5.26352 5.26352 5.26352 5.26352 5.26352 5.26352 5.26352 5.26352 5.26352 5.26352 5.26352 5.26352 5.26352 5.26352 5.26352 5.26352 5.26352 5.26352 5.26352 5.26352 5.26352 5.26352 5.26352 5.26352 5.26352 5.26352 5.26352 5.26352 5.26352 5.26352 5.26352 5.26352 5.26352 5.26352 5.26352 5.26352 5.26352 5.26352 5.26352 5.26352 5.26352 5.26352 5.26352 5.26352 5.26352 5.26352 5.26352 5.26352 5.26352 5.26352 
</DataArray>
<DataArray Name="Stress_22" format="ascii" type="Float64">
5.91487 5.91487 5.91487 5.91487 5.91487 5.91487 5.91487 5.91487 5.91487 5.91487 5.91487 5.91487 5.91487 5.91487 5.91487 5.91487 5.91487 5.91487 5.91487 5.91487 5.91487 5.91487 5.91487 5.91487 5.91487 5.91487 5.91487 5.91487 5.91487 5.91487 5.91487 5.91487 5.91487 5.91487 5.91487 5.91487 5.91487 5.91487 5.91487 5.91487 5.91487 5.91487 5.91487 5.91487 5.91487 5.91487 5.91487 5.91487 5.91487 5.91487 5.91487 5.91487 5.91487 5.91487 5.91487 5.91487 5.91487 5.91487 5.91487 5.91487 5.91487 5.91487 5.91487 5.91487 5.91487 5.91487 5.91487 5.91487 5.91487 5.91487 5.91487 5.91487 5.91487 5.91487 5.91487 5.91487 5.91487 5.91487 5.91487 5.91487 5.91487 5.91487 5.91487 5.91487 5.91487 5.91487 5.91487 5.91487 5.91487 5.91487 5.91487 5.91487 5.91487 5.91487 5.91487 5.91487 5.91487 5.91487 5.91487 5.91487 
</DataArray>
<DataArray Name="Stress_12" format="ascii" type="Float64">
-5.04818e-15 8.69083e-15 2.79465e-14 1.26982e-14 -6.245e-16 -8.67806e-15 2.5045e-14 4.02153e-14 1.18655e-14 -1.45717e-15 -2.86243e-15 1.87869e-14 2.21179e-14 2.08167e-14 1.06165e-14 6.11455e-16 1.07075e-14 3.29167e-15 1.64321e-14 1.1228e-14 -8.59158e-15 2.85819e-15 1.72072e-15 9.94063e-15 9.9807e-15 8.97754e-16 2.92738e-15 -1.97758e-15 5.6205e-15 6.71338e-15 1.30174e-16 -4.13725e-15 2.91434e-15 1.03043e-14 -8.32667e-16 5.03514e-15 8.36581e-15 5.3732e-15 1.64843e-14 -1.31395e-15 4.42368e-15 6.76681e-16 4.73566e-15 1.39472e-14 2.08167e-16 1.07858e-14 -1.81494e-14 9.61453e-15 1.249e-15 -9.15934e-15 -6.8695e-15 -6.81732e-15 6.92169e-15 2.44582e-15 -1.56647e-14 7.07767e-15 -4.95687e-15 1.61721e-14 1.28672e-14 1.54693e-14 1.22818e-14 -4.68237e-16 3.0706e-15 6.76403e-16 1.55986e-16 3.1615e-15 4.74884e-15 -6.25791e-15 -7.24684e-15 8.19622e-16 5.07927e-16 3.76485e-15 -5.34429e-15 1.3452e-16 7.44691e-15 5.30825e-15 1.04083e-16 -8.05356e-15 -1.0083e-14 -8.05342e-15 1.00961e-14 5.6205e-15 2.58127e-17 6.68743e-15 1.31406e-14 6.07597e-15 1.56775e-14 4.8786e-15 -1.18264e-14 -8.4957e-15 3.53884e-15 2.53442e-14 2.30543e-14 8.58702e-15 1.4832e-14 -7.70217e-15 1.83575e-14 9.40636e-15 9.74498e-15 -7.3247e-15 
</DataArray>
<DataArray Name="Stress_13" format="ascii" type="Float64">
5.03675e-16 5.03675e-16 5.03675e-16 5.03675e-16 5.03675e-16 5.03675e-16 5.03675e-16 5.03675e-16 5.03675e-16 5.03675e-16 5.03675e-16 5.03675e-16 5.03675e-16 5.03675e-16 5.03675e-16 5.03675e-16 5.03675e-16 5.03675e-16 5.03675e-16 5.03675e-16 5.03675e-16 5.03675e-16 5.03675e-16 5.03675e-16 5.03675e-16 5.03675e-16 5.03675e-16 5.03675e-16 5.03675e-16 5.03675e-16 5.03675e-16 5.03675e-16 5.03675e-16 5.03675e-16 5.03675e-16 5.03675e-16 5.03675e-16 5.03675e-16 5.03675e-16 5.03675e-16 5.03675e-16 5.03675e-16 5.03675e-16 5.03675e-16 5.03675e-16 5.03675e-16 5.03675e-16 5.03675e-16 5.03675e-16 5.03675e-16 5.03675e-16 5.03675e-16 5.03675e-16 5.03675e-16 5.03675e-16 5.03675e-16 5.03675e-16 5.03675e-16 5.03675e-16 5.03675e-16 5.03675e-16 5.03675e-16 5.03675e-16 5.03675e-16 5.03675e-16 5.03675e-16 5.03675e-16 5.03675e-16 5.03675e-16 5.03675e-16 5.03675e-16 5.03675e-16 5.03675e-16 5.03675e-16 5.03675e-16 5.03675e-16 5.03675e-16 5.03675e-16 5.03675e-16 5.03675e-16 5.03675e-16 5.03675e-16 5.03675e-16 5.03675e-16 5.03675e-16 5.03675e-16 5.03675e-16 5.03675e-16 5.03675e-16 5.03675e-16 5.03675e-16 5.03675e-16 5.03675e-16 5.03675e-16 5.03675e-16 5.03675e-16 5.03675e-16 5.03675e-16 5.03675e-16 5.03675e-16 
</DataArray>
<DataArray Name="Stress_23" format="ascii" type="Float64">
1.17321e-31 5.28018e-31 7.79269e-31 2.65416e-31 -1.22272e-31 6.07081e-31 9.53516e-31 8.40088e-31 2.56478e-31 -7.1889e-32 4.56327e-32 4.31407e-31 5.86803e-31 3.21681e-31 1.49317e-31 5.17256e-31 8.79466e-32 -1.17464e-31 1.9447e-31 2.68134e-31 1.75229e-31 2.72173e-31 -7.67517e-32 2.45273e-31 1.48385e-31 4.37278e-31 4.90004e-31 4.03528e-31 4.00777e-32 5.27327e-32 1.27034e-31 -2.43534e-31 -1.35992e-31 1.92551e-31 -5.83618e-32 -3.43486e-31 -2.58e-32 1.37927e-31 1.56325e-31 -5.46452e-32 1.93659e-31 -2.99496e-31 -5.29138e-31 -2.24556e-31 -1.48477e-31 -5.75873e-31 -5.03059e-31 -9.57465e-32 -1.96934e-31 -2.45851e-31 -3.13856e-31 -2.4832e-31 -3.03066e-31 -3.78912e-31 -5.57866e-31 5.2067e-32 -4.04123e-32 7.15908e-32 -5.33984e-31 -1.20782e-30 -2.86193e-33 -2.79945e-31 -6.54812e-31 -9.43441e-31 9.87782e-32 -3.99891e-32 -4.15542e-31 -7.25567e-31 1.55635e-31 5.9313e-31 1.07199e-32 1.36383e-32 -1.22731e-31 -1.17913e-31 3.48869e-31 -6.3781e-32 -2.8502e-31 -2.26044e-31 -6.85611e-32 -3.85538e-31 1.24188e-31 1.54346e-31 2.20879e-31 5.62787e-33 -3.17718e-31 1.19017e-31 2.58347e-31 6.70646e-32 -6.71188e-32 1.83582e-31 6.05039e-32 7.12764e-31 6.64176e-31 4.0942e-31 -4.91699e-32 9.63185e-32 5.239e-31 6.60704e-31 5.37007e-31 1.2136e-31 
</DataArray>
<DataArray Name="Stress_33" format="ascii" type="Float64">
121.788 121.788 121.788 121.788 121.788 121.788 121.788 121.788 121.788 121.788 121.788 121.788 121.788 121.788 121.788 121.788 121.788 121.788 121.788 121.788 121.788 121.788 121.788 121.788 121.788 121.788 121.788 121.788 121.788 121.788 121.788 121.788 121.788 121.788 121.788 121.788 121.788 121.788 121.788 121.788 121.788 121.788 121.788 121.788 121.788 121.788 121.788 121.788 121.788 121.788 121.788 121.788 121.788 121.788 121.788 121.788 121.788 121.788 121.788 121.788 121.788 121.788 121.788 121.788 121.788 121.788 121.788 121.788 121.788 121.788 121.788 121.788 121.788 121.788 121.788 121.788 121.788 121.788 121.788 121.788 121.788 121.788 121.788 121.788 121.788 121.788 121.788 121.788 121.788 121.788 121.788 121.788 121.788 121.788 121.788 121.788 121.788 121.788 121.788 121.788 
</DataArray>
</CellData>
<Points>
<DataArray NumberOfComponents="3" format="ascii" type="Float64">
-0.05 -0.05 0 -0.05 0 0 -0.05 -0.04 0 -0.05 -0.03 0 -0.05 -0.02 0 -0.05 -0.01 0 0 0 0 -0.04 0 0 -0.03 0 0 -0.02 0 0 -0.01 0 0 0 -0.05 0 0 -0.01 0 0 -0.02 0 0 -0.03 0 0 -0.04 0 -0.01 -0.05 0 -0.02 -0.05 0 -0.03 -0.05 0 -0.04 -0.05 0 -0.04 -0.04 0 -0.04 -0.03 0 -0.04 -0.02 0 -0.04 -0.01 0 -0.03 -0.04 0 -0.03 -0.03 0 -0.03 -0.02 0 -0.03 -0.01 0 -0.02 -0.04 0 -0.02 -0.03 0 -0.02 -0.02 0 -0.02 -0.01 0 -0.01 -0.04 0 -0.01 -0.03 0 -0.01 -0.02 0 -0.01 -0.01 0 -0.05 0.05 0 -0.05 0.01 0 -0.05 0.02 0 -0.05 0.03 0 -0.05 0.04 0 0 0.05 0 -0.04 0.05 0 -0.03 0.05 0 -0.02 0.05 0 -0.01 0.05 0 0 0.04 0 0 0.03 0 0 0.02 0 0 0.01 0 -0.04 0.01 0 -0.04 0.02 0 -0.04 0.03 0 -0.04 0.04 0 -0.03 0.01 0 -0.03 0.02 0 -0.03 0.03 0 -0.03 0.04 0 -0.02 0.01 0 -0.02 0.02 0 -0.02 0.03 0 -0.02 0.04 0 -0.01 0.01 0 -0.01 0.02 0 -0.01 0.03 0 -0.01 0.04 0 0.05 0 0 0.01 0 0 0.02 0 0 0.03 0 0 0.04 0 0 0.05 -0.05 0 0.05 -0.01 0 0.05 -0.02 0 0.05 -0.03 0 0.05 -0.04 0 0.04 -0.05 0 0.03 -0.05 0 0.02 -0.05 0 0.01 -0.05 0 0.01 -0.04 0 0.01 -0.03 0 0.01 -0.02 0 0.01 -0.01 0 0.02 -0.04 0 0.02 -0.03 0 0.02 -0.02 0 0.02 -0.01 0 0.03 -0.04 0 0.03 -0.03 0 0.03 -0.02 0 0.03 -0.01 0 0.04 -0.04 0 0.04 -0.03 0 0.04 -0.02 0 0.04 -0.01 0 0.05 0.05 0 0.01 0.05 0 0.02 0.05 0 0.03 0.05 0 0.04 0.05 0 0.05 0.04 0 0.05 0.03 0 0.05 0.02 0 0.05 0.01 0 0.01 0.01 0 0.01 0.02 0 0.01 0.03 0 0.01 0.04 0 0.02 0.01 0 0.02 0.02 0 0.02 0.03 0 0.02 0.04 0 0.03 0.01 0 0.03 0.02 0 0.03 0.03 0 0.03 0.04 0 0.04 0.01 0 0.04 0.02 0 0.04 0.03 0 0.04 0.04 0 
</DataArray>
</Points>
<Cells>
<DataArray Name="connectivity" format="ascii" type="Int64">
0 19 20 2 19 18 24 20 18 17 28 24 17 16 32 28 16 11 15 32 2 20 21 3 20 24 25 21 24 28 29 25 28 32 33 29 32 15 14 33 3 21 22 4 21 25 26 22 25 29 30 26 29 33 34 30 33 14 13 34 4 22 23 5 22 26 27 23 26 30 31 27 30 34 35 31 34 13 12 35 5 23 7 1 23 27 8 7 27 31 9 8 31 35 10 9 35 12 6 10 1 7 50 37 7 8 54 50 8 9 58 54 9 10 62 58 10 6 49 62 37 50 51 38 50 54 55 51 54 58 59 55 58 62 63 59 62 49 48 63 38 51 52 39 51 55 56 52 55 59 60 56 59 63 64 60 63 48 47 64 39 52 53 40 52 56 57 53 56 60 61 57 60 64 65 61 64 47 46 65 40 53 42 36 53 57 43 42 57 61 44 43 61 65 45 44 65 46 41 45 11 79 80 15 79 78 84 80 78 77 88 84 77 76 92 88 76 71 75 92 15 80 81 14 80 84 85 81 84 88 89 85 88 92 93 89 92 75 74 93 14 81 82 13 81 85 86 82 85 89 90 86 89 93 94 90 93 74 73 94 13 82 83 12 82 86 87 83 86 90 91 87 90 94 95 91 94 73 72 95 12 83 67 6 83 87 68 67 87 91 69 68 91 95 70 69 95 72 66 70 6 67 105 49 67 68 109 105 68 69 113 109 69 70 117 113 70 66 104 117 49 105 106 48 105 109 110 106 109 113 114 110 113 117 118 114 117 104 103 118 48 106 107 47 106 110 111 107 110 114 115 111 114 118 119 115 118 103 102 119 47 107 108 46 107 111 112 108 111 115 116 112 115 119 120 116 119 102 101 120 46 108 97 41 108 112 98 97 112 116 99 98 116 120 100 99 120 101 96 100 
</DataArray>
<DataArray Name="offsets" format="ascii" type="Int64">
4 8 12 16 20 24 28 32 36 40 44 48 52 56 60 64 68 72 76 80 84 88 92 96 100 104 108 112 116 120 124 128 132 136 140 144 148 152 156 160 164 168 172 176 180 184 188 192 196 200 204 208 212 216 220 224 228 232 236 240 244 248 252 256 260 264 268 272 276 280 284 288 292 296 300 304 308 312 316 320 324 328 332 336 340 344 348 352 356 360 364 368 372 376 380 384 388 392 396 400 
</DataArray>
<DataArray Name="types" format="ascii" type="Int8">
9 9 9 9 9 9 9 9 9 9 9 9 9 9 9 9 9 9 9 9 9 9 9 9 9 9 9 9 9 9 9 9 9 9 9 9 9 9 9 9 9 9 9 9 9 9 9 9 9 9 9 9 9 9 9 9 9 9 9 9 9 9 9 9 9 9 9 9 9 9 9 9 9 9 9 9 9 9 9 9 9 9 9 9 9 9 9 9 9 9 9 9 9 9 9 9 9 9 9 9 
</DataArray>
</Cells>
</Piece>
</UnstructuredGrid>
</VTKFile>
