<?xml version="1.0"?>
<VTKFile byte_order="LittleEndian" type="UnstructuredGrid" version="0.1">
<UnstructuredGrid>
<Piece NumberOfCells="100" NumberOfPoints="121">
<PointData>
<DataArray Name="Warping_X" format="ascii" type="Float64">
3.95547e-19 3.97994e-34 4.6856e-19 4.39844e-19 3.34802e-19 1.79771e-19 3.8604e-34 4.204e-34 3.52143e-34 4.25727e-34 3.80713e-34 4.60244e-19 1.84017e-19 3.4499e-19 4.60241e-19 5.07202e-19 4.56356e-19 4.45177e-19 4.2828e-19 4.08842e-19 4.74667e-19 4.43268e-19 3.36753e-19 1.80663e-19 4.85547e-19 4.48574e-19 3.39383e-19 1.81768e-19 4.96614e-19 4.54326e-19 3.42128e-19 1.82876e-19 5.04418e-19 4.58652e-19 3.44213e-19 1.83707e-19 -3.95547e-19 -1.79771e-19 -3.34802e-19 -4.39844e-19 -4.6856e-19 -4.60244e-19 -4.08842e-19 -4.2828e-19 -4.45177e-19 -4.56356e-19 -5.07202e-19 -4.60241e-19 -3.4499e-19 -1.84017e-19 -1.80663e-19 -3.36753e-19 -4.43268e-19 -4.74667e-19 -1.81768e-19 -3.39383e-19 -4.48574e-19 -4.85547e-19 -1.82876e-19 -3.42128e-19 -4.54326e-19 -4.96614e-19 -1.83707e-19 -3.44213e-19 -4.58652e-19 -5.04418e-19 3.595e-34 3.22522e-34 3.45855e-34 2.15979e-34 4.64313e-34 3.95547e-19 1.79771e-19 3.34802e-19 4.39844e-19 4.6856e-19 4.08842e-19 4.2828e-19 4.45177e-19 4.56356e-19 5.04418e-19 4.58652e-19 3.44213e-19 1.83707e-19 4.96614e-19 4.54326e-19 3.42128e-19 1.82876e-19 4.85547e-19 4.48574e-19 3.39383e-19 1.81768e-19 4.74667e-19 4.43268e-19 3.36753e-19 1.80663e-19 -3.95547e-19 -4.56356e-19 -4.45177e-19 -4.2828e-19 -4.08842e-19 -4.6856e-19 -4.39844e-19 -3.34802e-19 -1.79771e-19 -1.83707e-19 -3.44213e-19 -4.58652e-19 -5.04418e-19 -1.82876e-19 -3.42128e-19 -4.54326e-19 -4.96614e-19 -1.81768e-19 -3.39383e-19 -4.48574e-19 -4.85547e-19 -1.80663e-19 -3.36753e-19 -4.43268e-19 -4.74667e-19 
</DataArray>
<DataArray Name="Warping_Y" format="ascii" type="Float64">
5.62218e-19 5.99248e-19 5.76836e-19 5.86986e-19 5.93739e-19 5.97852e-19 3.51874e-35 4.70956e-19 3.4714e-19 2.28078e-19 1.12944e-19 3.01018e-34 9.5749e-35 1.6106e-34 2.26667e-34 2.63113e-34 1.05244e-19 2.12087e-19 3.22221e-19 4.37653e-19 4.48447e-19 4.58131e-19 4.6527e-19 4.69536e-19 3.28989e-19 3.36052e-19 3.42037e-19 3.45848e-19 2.16045e-19 2.20364e-19 2.24387e-19 2.27124e-19 1.07059e-19 1.09084e-19 1.11053e-19 1.12447e-19 5.62218e-19 5.97852e-19 5.93739e-19 5.86986e-19 5.76836e-19 -2.72112e-34 4.37653e-19 3.22221e-19 2.12087e-19 1.05244e-19 -3.29416e-34 -2.24047e-34 -1.31659e-34 -5.97404e-35 4.69536e-19 4.6527e-19 4.58131e-19 4.48447e-19 3.45848e-19 3.42037e-19 3.36052e-19 3.28989e-19 2.27124e-19 2.24387e-19 2.20364e-19 2.16045e-19 1.12447e-19 1.11053e-19 1.09084e-19 1.07059e-19 -5.99248e-19 -1.12944e-19 -2.28078e-19 -3.4714e-19 -4.70956e-19 -5.62218e-19 -5.97852e-19 -5.93739e-19 -5.86986e-19 -5.76836e-19 -4.37653e-19 -3.22221e-19 -2.12087e-19 -1.05244e-19 -1.07059e-19 -1.09084e-19 -1.11053e-19 -1.12447e-19 -2.16045e-19 -2.20364e-19 -2.24387e-19 -2.27124e-19 -3.28989e-19 -3.36052e-19 -3.42037e-19 -3.45848e-19 -4.48447e-19 -4.58131e-19 -4.6527e-19 -4.69536e-19 -5.62218e-19 -1.05244e-19 -2.12087e-19 -3.22221e-19 -4.37653e-19 -5.76836e-19 -5.86986e-19 -5.93739e-19 -5.97852e-19 -1.12447e-19 -1.11053e-19 -1.09084e-19 -1.07059e-19 -2.27124e-19 -2.24387e-19 -2.20364e-19 -2.16045e-19 -3.45848e-19 -3.42037e-19 -3.36052e-19 -3.28989e-19 -4.69536e-19 -4.6527e-19 -4.58131e-19 -4.48447e-19 
</DataArray>
<DataArray Name="Warping_Z" format="ascii" type="Float64">
0 0 0 0 0 0 0 0 0 0 0 0 0 0 0 0 0 0 0 0 0 0 0 0 0 0 0 0 0 0 0 0 0 0 0 0 0 0 0 0 0 0 0 0 0 0 0 0 0 0 0 0 0 0 0 0 0 0 0 0 0 0 0 0 0 0 0 0 0 0 0 0 0 0 0 0 0 0 0 0 0 0 0 0 0 0 0 0 0 0 0 0 0 0 0 0 0 0 0 0 0 0 0 0 0 0 0 0 0 0 0 0 0 0 0 0 0 0 0 0 0 
</DataArray>
</PointData>
<CellData>
<DataArray Name="MaterialId" format="ascii" type="Float64">
3 3 3 3 3 3 3 3 3 3 3 3 3 3 3 3 3 3 3 3 3 3 3 3 3 3 3 3 3 3 3 3 3 3 3 3 3 3 3 3 3 3 3 3 3 3 3 3 3 3 3 3 3 3 3 3 3 3 3 3 3 3 3 3 3 3 3 3 3 3 3 3 3 3 3 3 3 3 3 3 3 3 3 3 3 3 3 3 3 3 3 3 3 3 3 3 3 3 3 3 
</DataArray>
<DataArray Name="FiberAngle" format="ascii" type="Float64">
90 90 90 90 90 90 90 90 90 90 90 90 90 90 90 90 90 90 90 90 90 90 90 90 90 90 90 90 90 90 90 90 90 90 90 90 90 90 90 90 90 90 90 90 90 90 90 90 90 90 90 90 90 90 90 90 90 90 90 90 90 90 90 90 90 90 90 90 90 90 90 90 90 90 90 90 90 90 90 90 90 90 90 90 90 90 90 90 90 90 90 90 90 90 90 90 90 90 90 90 
</DataArray>
<DataArray Name="Strain_11" format="ascii" type="Float64">
9.70098e-19 1.51589e-18 1.3982e-18 9.49165e-19 3.3356e-19 4.76517e-19 8.09306e-19 8.40966e-19 6.06482e-19 2.18639e-19 2.68731e-19 3.96838e-19 4.24824e-19 3.20546e-19 1.18339e-19 1.42194e-19 1.86737e-19 1.92639e-19 1.45835e-19 5.43279e-20 4.46309e-20 5.52181e-20 5.54264e-20 4.15574e-20 1.54625e-20 -4.46309e-20 -5.52181e-20 -5.54264e-20 -4.15574e-20 -1.54625e-20 -1.42194e-19 -1.86737e-19 -1.92639e-19 -1.45835e-19 -5.43279e-20 -2.68731e-19 -3.96838e-19 -4.24824e-19 -3.20546e-19 -1.18339e-19 -4.76517e-19 -8.09306e-19 -8.40966e-19 -6.06482e-19 -2.18639e-19 -9.70098e-19 -1.51589e-18 -1.3982e-18 -9.49165e-19 -3.3356e-19 -3.3356e-19 -9.49165e-19 -1.3982e-18 -1.51589e-18 -9.70098e-19 -2.18639e-19 -6.06482e-19 -8.40966e-19 -8.09306e-19 -4.76517e-19 -1.18339e-19 -3.20546e-19 -4.24824e-19 -3.96838e-19 -2.68731e-19 -5.43279e-20 -1.45835e-19 -1.92639e-19 -1.86737e-19 -1.42194e-19 -1.54625e-20 -4.15574e-20 -5.54264e-20 -5.52181e-20 -4.46309e-20 1.54625e-20 4.15574e-20 5.54264e-20 5.52181e-20 4.46309e-20 5.43279e-20 1.45835e-19 1.92639e-19 1.86737e-19 1.42194e-19 1.18339e-19 3.20546e-19 4.24824e-19 3.96838e-19 2.68731e-19 2.18639e-19 6.06482e-19 8.40966e-19 8.09306e-19 4.76517e-19 3.3356e-19 9.49165e-19 1.3982e-18 1.51589e-18 9.70098e-19 
</DataArray>
<DataArray Name="Strain_22" format="ascii" type="Float64">
1.27062e-18 8.78116e-19 5.3628e-19 2.88655e-19 9.07875e-20 9.91674e-19 8.3734e-19 5.69124e-19 3.17229e-19 1.01246e-19 6.94577e-19 6.56138e-19 5.00346e-19 2.99556e-19 9.84259e-20 4.18947e-19 4.03851e-19 3.2743e-19 2.06614e-19 6.97365e-20 1.40848e-19 1.35611e-19 1.12292e-19 7.25007e-20 2.48054e-20 -1.40848e-19 -1.35611e-19 -1.12292e-19 -7.25007e-20 -2.48054e-20 -4.18947e-19 -4.03851e-19 -3.2743e-19 -2.06614e-19 -6.97365e-20 -6.94577e-19 -6.56138e-19 -5.00346e-19 -2.99556e-19 -9.84259e-20 -9.91674e-19 -8.3734e-19 -5.69124e-19 -3.17229e-19 -1.01246e-19 -1.27062e-18 -8.78116e-19 -5.3628e-19 -2.88655e-19 -9.07875e-20 -9.07875e-20 -2.88655e-19 -5.3628e-19 -8.78116e-19 -1.27062e-18 -1.01246e-19 -3.17229e-19 -5.69124e-19 -8.3734e-19 -9.91674e-19 -9.84259e-20 -2.99556e-19 -5.00346e-19 -6.56138e-19 -6.94577e-19 -6.97365e-20 -2.06614e-19 -3.2743e-19 -4.03851e-19 -4.18947e-19 -2.48054e-20 -7.25007e-20 -1.12292e-19 -1.35611e-19 -1.40848e-19 2.48054e-20 7.25007e-20 1.12292e-19 1.35611e-19 1.40848e-19 6.97365e-20 2.06614e-19 3.2743e-19 4.03851e-19 4.18947e-19 9.84259e-20 2.99556e-19 5.00346e-19 6.56138e-19 6.94577e-19 1.01246e-19 3.17229e-19 5.69124e-19 8.3734e-19 9.91674e-19 9.07875e-20 2.88655e-19 5.3628e-19 8.78116e-19 1.27062e-18 
</DataArray>
<DataArray Name="Strain_12" format="ascii" type="Float64">
-5.70574e-18 -5.58987e-18 -5.71871e-18 -5.81647e-18 -5.86413e-18 -1.58679e-17 -1.54955e-17 -1.53947e-17 -1.5416e-17 -1.54435e-17 -2.3444e-17 -2.30509e-17 -2.27364e-17 -2.25626e-17 -2.24913e-17 -2.83953e-17 -2.80313e-17 -2.7662e-17 -2.73884e-17 -2.7249e-17 -3.08521e-17 -3.04968e-17 -3.01214e-17 -2.98198e-17 -2.96557e-17 -3.08521e-17 -3.04968e-17 -3.01214e-17 -2.98198e-17 -2.96557e-17 -2.83953e-17 -2.80313e-17 -2.7662e-17 -2.73884e-17 -2.7249e-17 -2.3444e-17 -2.30509e-17 -2.27364e-17 -2.25626e-17 -2.24913e-17 -1.58679e-17 -1.54955e-17 -1.53947e-17 -1.5416e-17 -1.54435e-17 -5.70574e-18 -5.58987e-18 -5.71871e-18 -5.81647e-18 -5.86413e-18 -5.86413e-18 -5.81647e-18 -5.71871e-18 -5.58987e-18 -5.70574e-18 -1.54435e-17 -1.5416e-17 -1.53947e-17 -1.54955e-17 -1.58679e-17 -2.24913e-17 -2.25626e-17 -2.27364e-17 -2.30509e-17 -2.3444e-17 -2.7249e-17 -2.73884e-17 -2.7662e-17 -2.80313e-17 -2.83953e-17 -2.96557e-17 -2.98198e-17 -3.01214e-17 -3.04968e-17 -3.08521e-17 -2.96557e-17 -2.98198e-17 -3.01214e-17 -3.04968e-17 -3.08521e-17 -2.7249e-17 -2.73884e-17 -2.7662e-17 -2.80313e-17 -2.83953e-17 -2.24913e-17 -2.25626e-17 -2.27364e-17 -2.30509e-17 -2.3444e-17 -1.54435e-17 -1.5416e-17 -1.53947e-17 -1.54955e-17 -1.58679e-17 -5.86413e-18 -5.81647e-18 -5.71871e-18 -5.58987e-18 -5.70574e-18 
</DataArray>
<DataArray Name="Strain_13" format="ascii" type="Float64">
-0.0165532 -0.0314936 -0.0304182 -0.0210707 -0.00746604 -0.00531995 -0.0137704 -0.0155005 -0.0114981 -0.00419002 -0.00240005 -0.00615531 -0.00740474 -0.0057882 -0.0021613 -0.00101978 -0.00266866 -0.003266 -0.00261203 -0.000989605 -0.000285014 -0.000746696 -0.000920951 -0.000741598 -0.000282358 0.000285014 0.000746696 0.000920951 0.000741598 0.000282358 0.00101978 0.00266866 0.003266 0.00261203 0.000989605 0.00240005 0.00615531 0.00740474 0.0057882 0.0021613 0.00531995 0.0137704 0.0155005 0.0114981 0.00419002 0.0165532 0.0314936 0.0304182 0.0210707 0.00746604 0.00746604 0.0210707 0.0304182 0.0314936 0.0165532 0.00419002 0.0114981 0.0155005 0.0137704 0.00531995 0.0021613 0.0057882 0.00740474 0.00615531 0.00240005 0.000989605 0.00261203 0.003266 0.00266866 0.00101978 0.000282358 0.000741598 0.000920951 0.000746696 0.000285014 -0.000282358 -0.000741598 -0.000920951 -0.000746696 -0.000285014 -0.000989605 -0.00261203 -0.003266 -0.00266866 -0.00101978 -0.0021613 -0.0057882 -0.00740474 -0.00615531 -0.00240005 -0.00419002 -0.0114981 -0.0155005 -0.0137704 -0.00531995 -0.00746604 -0.0210707 -0.0304182 -0.0314936 -0.0165532 
</DataArray>
<DataArray Name="Strain_23" format="ascii" type="Float64">
-0.662754 -0.679651 -0.686451 -0.690125 -0.69177 0.317598 0.286662 0.268679 0.258621 0.254017 1.04563 1.0108 0.987249 0.97296 0.966228 1.52907 1.49268 1.46675 1.45027 1.44231 1.77035 1.73339 1.70654 1.68919 1.6807 1.77035 1.73339 1.70654 1.68919 1.6807 1.52907 1.49268 1.46675 1.45027 1.44231 1.04563 1.0108 0.987249 0.97296 0.966228 0.317598 0.286662 0.268679 0.258621 0.254017 -0.662754 -0.679651 -0.686451 -0.690125 -0.69177 -0.69177 -0.690125 -0.686451 -0.679651 -0.662754 0.254017 0.258621 0.268679 0.286662 0.317598 0.966228 0.97296 0.987249 1.0108 1.04563 1.44231 1.45027 1.46675 1.49268 1.52907 1.6807 1.68919 1.70654 1.73339 1.77035 1.6807 1.68919 1.70654 1.73339 1.77035 1.44231 1.45027 1.46675 1.49268 1.52907 0.966228 0.97296 0.987249 1.0108 1.04563 0.254017 0.258621 0.268679 0.286662 0.317598 -0.69177 -0.690125 -0.686451 -0.679651 -0.662754 
</DataArray>
<DataArray Name="Strain_33" format="ascii" type="Float64">
-5.82347e-18 -4.53781e-18 -3.24305e-18 -1.94621e-18 -6.48779e-19 -4.54575e-18 -3.5313e-18 -2.52195e-18 -1.5131e-18 -5.04362e-19 -3.25378e-18 -2.52662e-18 -1.80264e-18 -1.08095e-18 -3.60228e-19 -1.95453e-18 -1.51782e-18 -1.08273e-18 -6.49025e-19 -2.16243e-19 -6.51871e-19 -5.0624e-19 -3.61128e-19 -2.1646e-19 -7.21143e-20 6.51871e-19 5.0624e-19 3.61128e-19 2.1646e-19 7.21143e-20 1.95453e-18 1.51782e-18 1.08273e-18 6.49025e-19 2.16243e-19 3.25378e-18 2.52662e-18 1.80264e-18 1.08095e-18 3.60228e-19 4.54575e-18 3.5313e-18 2.52195e-18 1.5131e-18 5.04362e-19 5.82347e-18 4.53781e-18 3.24305e-18 1.94621e-18 6.48779e-19 6.48779e-19 1.94621e-18 3.24305e-18 4.53781e-18 5.82347e-18 5.04362e-19 1.5131e-18 2.52195e-18 3.5313e-18 4.54575e-18 3.60228e-19 1.08095e-18 1.80264e-18 2.52662e-18 3.25378e-18 2.16243e-19 6.49025e-19 1.08273e-18 1.51782e-18 1.95453e-18 7.21143e-20 2.1646e-19 3.61128e-19 5.0624e-19 6.51871e-19 -7.21143e-20 -2.1646e-19 -3.61128e-19 -5.0624e-19 -6.51871e-19 -2.16243e-19 -6.49025e-19 -1.08273e-18 -1.51782e-18 -1.95453e-18 -3.60228e-19 -1.08095e-18 -1.80264e-18 -2.52662e-18 -3.25378e-18 -5.04362e-19 -1.5131e-18 -2.52195e-18 -3.5313e-18 -4.54575e-18 -6.48779e-19 -1.94621e-18 -3.24305e-18 -4.53781e-18 -5.82347e-18 
</DataArray>
<DataArray Name="Stress_11" format="ascii" type="Float64">
-1.15413e-17 -2.62343e-17 -3.16233e-17 -2.45702e-17 -9.13761e-18 1.13126e-17 2.60616e-17 2.89815e-17 2.09476e-17 7.50002e-18 1.36508e-18 7.86717e-18 1.35365e-17 1.23785e-17 4.9031e-18 2.07259e-19 1.06674e-18 2.84633e-18 3.33214e-18 1.47451e-18 -1.21235e-19 -1.02198e-19 2.14395e-19 4.41464e-19 2.27816e-19 1.21235e-19 1.02198e-19 -2.14395e-19 -4.41464e-19 -2.27816e-19 -2.07259e-19 -1.06674e-18 -2.84633e-18 -3.33214e-18 -1.47451e-18 -1.36508e-18 -7.86717e-18 -1.35365e-17 -1.23785e-17 -4.9031e-18 -1.13126e-17 -2.60616e-17 -2.89815e-17 -2.09476e-17 -7.50002e-18 1.15413e-17 2.62343e-17 3.16233e-17 2.45702e-17 9.13761e-18 9.13761e-18 2.45702e-17 3.16233e-17 2.62343e-17 1.15413e-17 -7.50002e-18 -2.09476e-17 -2.89815e-17 -2.60616e-17 -1.13126e-17 -4.9031e-18 -1.23785e-17 -1.35365e-17 -7.86717e-18 -1.36508e-18 -1.47451e-18 -3.33214e-18 -2.84633e-18 -1.06674e-18 -2.07259e-19 -2.27816e-19 -4.41464e-19 -2.14395e-19 1.02198e-19 1.21235e-19 2.27816e-19 4.41464e-19 2.14395e-19 -1.02198e-19 -1.21235e-19 1.47451e-18 3.33214e-18 2.84633e-18 1.06674e-18 2.07259e-19 4.9031e-18 1.23785e-17 1.35365e-17 7.86717e-18 1.36508e-18 7.50002e-18 2.09476e-17 2.89815e-17 2.60616e-17 1.13126e-17 -9.13761e-18 -2.45702e-17 -3.16233e-17 -2.62343e-17 -1.15413e-17 
</DataArray>
<DataArray Name="Stress_22" format="ascii" type="Float64">
-5.96761e-18 9.16048e-18 6.44934e-18 3.68346e-18 1.16457e-18 -1.5364e-17 1.29942e-17 1.51661e-17 9.67648e-18 3.24374e-18 -1.56126e-17 1.01132e-17 1.6623e-17 1.23065e-17 4.33722e-18 -9.86224e-18 5.46401e-18 1.12441e-17 9.20738e-18 3.39471e-18 -3.24394e-18 1.68449e-18 3.83434e-18 3.28571e-18 1.23935e-18 3.24394e-18 -1.68449e-18 -3.83434e-18 -3.28571e-18 -1.23935e-18 9.86224e-18 -5.46401e-18 -1.12441e-17 -9.20738e-18 -3.39471e-18 1.56126e-17 -1.01132e-17 -1.6623e-17 -1.23065e-17 -4.33722e-18 1.5364e-17 -1.29942e-17 -1.51661e-17 -9.67648e-18 -3.24374e-18 5.96761e-18 -9.16048e-18 -6.44934e-18 -3.68346e-18 -1.16457e-18 -1.16457e-18 -3.68346e-18 -6.44934e-18 -9.16048e-18 5.96761e-18 -3.24374e-18 -9.67648e-18 -1.51661e-17 -1.29942e-17 1.5364e-17 -4.33722e-18 -1.23065e-17 -1.6623e-17 -1.01132e-17 1.56126e-17 -3.39471e-18 -9.20738e-18 -1.12441e-17 -5.46401e-18 9.86224e-18 -1.23935e-18 -3.28571e-18 -3.83434e-18 -1.68449e-18 3.24394e-18 1.23935e-18 3.28571e-18 3.83434e-18 1.68449e-18 -3.24394e-18 3.39471e-18 9.20738e-18 1.12441e-17 5.46401e-18 -9.86224e-18 4.33722e-18 1.23065e-17 1.6623e-17 1.01132e-17 -1.56126e-17 3.24374e-18 9.67648e-18 1.51661e-17 1.29942e-17 -1.5364e-17 1.16457e-18 3.68346e-18 6.44934e-18 9.16048e-18 -5.96761e-18 
</DataArray>
<DataArray Name="Stress_12" format="ascii" type="Float64">
-7.48164e-16 -7.51559e-16 -7.63452e-16 -7.71568e-16 -7.75434e-16 -7.57603e-16 -7.54198e-16 -7.59161e-16 -7.666e-16 -7.71071e-16 -7.66377e-16 -7.64118e-16 -7.59665e-16 -7.57989e-16 -7.57835e-16 -7.67432e-16 -7.67878e-16 -7.61597e-16 -7.5527e-16 -7.51779e-16 -7.67099e-16 -7.68411e-16 -7.62327e-16 -7.54856e-16 -7.50211e-16 -7.67099e-16 -7.68411e-16 -7.62327e-16 -7.54856e-16 -7.50211e-16 -7.67432e-16 -7.67878e-16 -7.61597e-16 -7.5527e-16 -7.51779e-16 -7.66377e-16 -7.64118e-16 -7.59665e-16 -7.57989e-16 -7.57835e-16 -7.57603e-16 -7.54198e-16 -7.59161e-16 -7.666e-16 -7.71071e-16 -7.48164e-16 -7.51559e-16 -7.63452e-16 -7.71568e-16 -7.75434e-16 -7.75434e-16 -7.71568e-16 -7.63452e-16 -7.51559e-16 -7.48164e-16 -7.71071e-16 -7.666e-16 -7.59161e-16 -7.54198e-16 -7.57603e-16 -7.57835e-16 -7.57989e-16 -7.59665e-16 -7.64118e-16 -7.66377e-16 -7.51779e-16 -7.5527e-16 -7.61597e-16 -7.67878e-16 -7.67432e-16 -7.50211e-16 -7.54856e-16 -7.62327e-16 -7.68411e-16 -7.67099e-16 -7.50211e-16 -7.54856e-16 -7.62327e-16 -7.68411e-16 -7.67099e-16 -7.51779e-16 -7.5527e-16 -7.61597e-16 -7.67878e-16 -7.67432e-16 -7.57835e-16 -7.57989e-16 -7.59665e-16 -7.64118e-16 -7.66377e-16 -7.71071e-16 -7.666e-16 -7.59161e-16 -7.54198e-16 -7.57603e-16 -7.75434e-16 -7.71568e-16 -7.63452e-16 -7.51559e-16 -7.48164e-16 
</DataArray>
<DataArray Name="Stress_13" format="ascii" type="Float64">
-0.993191 -1.88962 -1.82509 -1.26424 -0.447962 -0.319197 -0.826223 -0.930028 -0.689888 -0.251401 -0.144003 -0.369318 -0.444284 -0.347292 -0.129678 -0.0611866 -0.16012 -0.19596 -0.156722 -0.0593763 -0.0171008 -0.0448018 -0.0552571 -0.0444959 -0.0169415 0.0171008 0.0448018 0.0552571 0.0444959 0.0169415 0.0611866 0.16012 0.19596 0.156722 0.0593763 0.144003 0.369318 0.444284 0.347292 0.129678 0.319197 0.826223 0.930028 0.689888 0.251401 0.993191 1.88962 1.82509 1.26424 0.447962 0.447962 1.26424 1.82509 1.88962 0.993191 0.251401 0.689888 0.930028 0.826223 0.319197 0.129678 0.347292 0.444284 0.369318 0.144003 0.0593763 0.156722 0.19596 0.16012 0.0611866 0.0169415 0.0444959 0.0552571 0.0448018 0.0171008 -0.0169415 -0.0444959 -0.0552571 -0.0448018 -0.0171008 -0.0593763 -0.156722 -0.19596 -0.16012 -0.0611866 -0.129678 -0.347292 -0.444284 -0.369318 -0.144003 -0.251401 -0.689888 -0.930028 -0.826223 -0.319197 -0.447962 -1.26424 -1.82509 -1.88962 -0.993191 
</DataArray>
<DataArray Name="Stress_23" format="ascii" type="Float64">
-33.1377 -33.9826 -34.3225 -34.5062 -34.5885 15.8799 14.3331 13.4339 12.931 12.7009 52.2817 50.5399 49.3625 48.648 48.3114 76.4535 74.6339 73.3373 72.5136 72.1155 88.5177 86.6696 85.3272 84.4595 84.0352 88.5177 86.6696 85.3272 84.4595 84.0352 76.4535 74.6339 73.3373 72.5136 72.1155 52.2817 50.5399 49.3625 48.648 48.3114 15.8799 14.3331 13.4339 12.931 12.7009 -33.1377 -33.9826 -34.3225 -34.5062 -34.5885 -34.5885 -34.5062 -34.3225 -33.9826 -33.1377 12.7009 12.931 13.4339 14.3331 15.8799 48.3114 48.648 49.3625 50.5399 52.2817 72.1155 72.5136 73.3373 74.6339 76.4535 84.0352 84.4595 85.3272 86.6696 88.5177 84.0352 84.4595 85.3272 86.6696 88.5177 72.1155 72.5136 73.3373 74.6339 76.4535 48.3114 48.648 49.3625 50.5399 52.2817 12.7009 12.931 13.4339 14.3331 15.8799 -34.5885 -34.5062 -34.3225 -33.9826 -33.1377 
</DataArray>
<DataArray Name="Stress_33" format="ascii" type="Float64">
-7.06694e-16 -5.54393e-16 -3.99607e-16 -2.41109e-16 -8.05905e-17 -5.50804e-16 -4.23946e-16 -3.02724e-16 -1.82075e-16 -6.07863e-17 -3.95285e-16 -3.02339e-16 -2.13936e-16 -1.27946e-16 -4.26211e-17 -2.37454e-16 -1.81599e-16 -1.28009e-16 -7.62424e-17 -2.53419e-17 -7.91731e-17 -6.05763e-17 -4.26496e-17 -2.53588e-17 -8.41922e-18 7.91731e-17 6.05763e-17 4.26496e-17 2.53588e-17 8.41922e-18 2.37454e-16 1.81599e-16 1.28009e-16 7.62424e-17 2.53419e-17 3.95285e-16 3.02339e-16 2.13936e-16 1.27946e-16 4.26211e-17 5.50804e-16 4.23946e-16 3.02724e-16 1.82075e-16 6.07863e-17 7.06694e-16 5.54393e-16 3.99607e-16 2.41109e-16 8.05905e-17 8.05905e-17 2.41109e-16 3.99607e-16 5.54393e-16 7.06694e-16 6.07863e-17 1.82075e-16 3.02724e-16 4.23946e-16 5.50804e-16 4.26211e-17 1.27946e-16 2.13936e-16 3.02339e-16 3.95285e-16 2.53419e-17 7.62424e-17 1.28009e-16 1.81599e-16 2.37454e-16 8.41922e-18 2.53588e-17 4.26496e-17 6.05763e-17 7.91731e-17 -8.41922e-18 -2.53588e-17 -4.26496e-17 -6.05763e-17 -7.91731e-17 -2.53419e-17 -7.62424e-17 -1.28009e-16 -1.81599e-16 -2.37454e-16 -4.26211e-17 -1.27946e-16 -2.13936e-16 -3.02339e-16 -3.95285e-16 -6.07863e-17 -1.82075e-16 -3.02724e-16 -4.23946e-16 -5.50804e-16 -8.05905e-17 -2.41109e-16 -3.99607e-16 -5.54393e-16 -7.06694e-16 
</DataArray>
</CellData>
<Points>
<DataArray NumberOfComponents="3" format="ascii" type="Float64">
-0.05 -0.05 0 -0.05 0 0 -0.05 -0.04 0 -0.05 -0.03 0 -0.05 -0.02 0 -0.05 -0.01 0 0 0 0 -0.04 0 0 -0.03 0 0 -0.02 0 0 -0.01 0 0 0 -0.05 0 0 -0.01 0 0 -0.02 0 0 -0.03 0 0 -0.04 0 -0.01 -0.05 0 -0.02 -0.05 0 -0.03 -0.05 0 -0.04 -0.05 0 -0.04 -0.04 0 -0.04 -0.03 0 -0.04 -0.02 0 -0.04 -0.01 0 -0.03 -0.04 0 -0.03 -0.03 0 -0.03 -0.02 0 -0.03 -0.01 0 -0.02 -0.04 0 -0.02 -0.03 0 -0.02 -0.02 0 -0.02 -0.01 0 -0.01 -0.04 0 -0.01 -0.03 0 -0.01 -0.02 0 -0.01 -0.01 0 -0.05 0.05 0 -0.05 0.01 0 -0.05 0.02 0 -0.05 0.03 0 -0.05 0.04 0 0 0.05 0 -0.04 0.05 0 -0.03 0.05 0 -0.02 0.05 0 -0.01 0.05 0 0 0.04 0 0 0.03 0 0 0.02 0 0 0.01 0 -0.04 0.01 0 -0.04 0.02 0 -0.04 0.03 0 -0.04 0.04 0 -0.03 0.01 0 -0.03 0.02 0 -0.03 0.03 0 -0.03 0.04 0 -0.02 0.01 0 -0.02 0.02 0 -0.02 0.03 0 -0.02 0.04 0 -0.01 0.01 0 -0.01 0.02 0 -0.01 0.03 0 -0.01 0.04 0 0.05 0 0 0.01 0 0 0.02 0 0 0.03 0 0 0.04 0 0 0.05 -0.05 0 0.05 -0.01 0 0.05 -0.02 0 0.05 -0.03 0 0.05 -0.04 0 0.04 -0.05 0 0.03 -0.05 0 0.02 -0.05 0 0.01 -0.05 0 0.01 -0.04 0 0.01 -0.03 0 0.01 -0.02 0 0.01 -0.01 0 0.02 -0.04 0 0.02 -0.03 0 0.02 -0.02 0 0.02 -0.01 0 0.03 -0.04 0 0.03 -0.03 0 0.03 -0.02 0 0.03 -0.01 0 0.04 -0.04 0 0.04 -0.03 0 0.04 -0.02 0 0.04 -0.01 0 0.05 0.05 0 0.01 0.05 0 0.02 0.05 0 0.03 0.05 0 0.04 0.05 0 0.05 0.04 0 0.05 0.03 0 0.05 0.02 0 0.05 0.01 0 0.01 0.01 0 0.01 0.02 0 0.01 0.03 0 0.01 0.04 0 0.02 0.01 0 0.02 0.02 0 0.02 0.03 0 0.02 0.04 0 0.03 0.01 0 0.03 0.02 0 0.03 0.03 0 0.03 0.04 0 0.04 0.01 0 0.04 0.02 0 0.04 0.03 0 0.04 0.04 0 
</DataArray>
</Points>
<Cells>
<DataArray Name="connectivity" format="ascii" type="Int64">
0 19 20 2 19 18 24 20 18 17 28 24 17 16 32 28 16 11 15 32 2 20 21 3 20 24 25 21 24 28 29 25 28 32 33 29 32 15 14 33 3 21 22 4 21 25 26 22 25 29 30 26 29 33 34 30 33 14 13 34 4 22 23 5 22 26 27 23 26 30 31 27 30 34 35 31 34 13 12 35 5 23 7 1 23 27 8 7 27 31 9 8 31 35 10 9 35 12 6 10 1 7 50 37 7 8 54 50 8 9 58 54 9 10 62 58 10 6 49 62 37 50 51 38 50 54 55 51 54 58 59 55 58 62 63 59 62 49 48 63 38 51 52 39 51 55 56 52 55 59 60 56 59 63 64 60 63 48 47 64 39 52 53 40 52 56 57 53 56 60 61 57 60 64 65 61 64 47 46 65 40 53 42 36 53 57 43 42 57 61 44 43 61 65 45 44 65 46 41 45 11 79 80 15 79 78 84 80 78 77 88 84 77 76 92 88 76 71 75 92 15 80 81 14 80 84 85 81 84 88 89 85 88 92 93 89 92 75 74 93 14 81 82 13 81 85 86 82 85 89 90 86 89 93 94 90 93 74 73 94 13 82 83 12 82 86 87 83 86 90 91 87 90 94 95 91 94 73 72 95 12 83 67 6 83 87 68 67 87 91 69 68 91 95 70 69 95 72 66 70 6 67 105 49 67 68 109 105 68 69 113 109 69 70 117 113 70 66 104 117 49 105 106 48 105 109 110 106 109 113 114 110 113 117 118 114 117 104 103 118 48 106 107 47 106 110 111 107 110 114 115 111 114 118 119 115 118 103 102 119 47 107 108 46 107 111 112 108 111 115 116 112 115 119 120 116 119 102 101 120 46 108 97 41 108 112 98 97 112 116 99 98 116 120 100 99 120 101 96 100 
</DataArray>
<DataArray Name="offsets" format="ascii" type="Int64">
4 8 12 16 20 24 28 32 36 40 44 48 52 56 60 64 68 72 76 80 84 88 92 96 100 104 108 112 116 120 124 128 132 136 140 144 148 152 156 160 164 168 172 176 180 184 188 192 196 200 204 208 212 216 220 224 228 232 236 240 244 248 252 256 260 264 268 272 276 280 284 288 292 296 300 304 308 312 316 320 324 328 332 336 340 344 348 352 356 360 364 368 372 376 380 384 388 392 396 400 
</DataArray>
<DataArray Name="types" format="ascii" type="Int8">
9 9 9 9 9 9 9 9 9 9 9 9 9 9 9 9 9 9 9 9 9 9 9 9 9 9 9 9 9 9 9 9 9 9 9 9 9 9 9 9 9 9 9 9 9 9 9 9 9 9 9 9 9 9 9 9 9 9 9 9 9 9 9 9 9 9 9 9 9 9 9 9 9 9 9 9 9 9 9 9 9 9 9 9 9 9 9 9 9 9 9 9 9 9 9 9 9 9 9 9 
</DataArray>
</Cells>
</Piece>
</UnstructuredGrid>
</VTKFile>
