<?xml version="1.0"?>
<VTKFile byte_order="LittleEndian" type="UnstructuredGrid" version="0.1">
<UnstructuredGrid>
<Piece NumberOfCells="100" NumberOfPoints="121">
<PointData>
<DataArray Name="Warping_X" format="ascii" type="Float64">
-0.119408 -2.45635e-17 -0.0950459 -0.0712294 -0.0474607 -0.0237267 -1.32732e-17 -2.60907e-17 -2.77618e-17 -2.42537e-17 -2.06111e-17 -1.45541e-17 -2.79541e-17 -3.6266e-17 -2.24741e-17 -2.1182e-17 -0.0238211 -0.0476526 -0.0715098 -0.0954185 -0.076094 -0.0569796 -0.0379675 -0.0189791 -0.0570953 -0.0427434 -0.0284752 -0.0142337 -0.0380706 -0.0285019 -0.0189845 -0.00948905 -0.0190367 -0.014253 -0.00949279 -0.0047446 0.119408 0.0237267 0.0474607 0.0712294 0.0950459 3.1336e-17 0.0954185 0.0715098 0.0476526 0.0238211 2.20214e-17 2.57029e-17 1.22254e-17 -1.23178e-18 0.0189791 0.0379675 0.0569796 0.076094 0.0142337 0.0284752 0.0427434 0.0570953 0.00948905 0.0189845 0.0285019 0.0380706 0.0047446 0.00949279 0.014253 0.0190367 -3.13708e-18 -5.47222e-18 -4.99521e-19 2.72393e-19 -2.75602e-18 0.119408 0.0237267 0.0474607 0.0712294 0.0950459 0.0954185 0.0715098 0.0476526 0.0238211 0.0190367 0.014253 0.00949279 0.0047446 0.0380706 0.0285019 0.0189845 0.00948905 0.0570953 0.0427434 0.0284752 0.0142337 0.076094 0.0569796 0.0379675 0.0189791 -0.119408 -0.0238211 -0.0476526 -0.0715098 -0.0954185 -0.0950459 -0.0712294 -0.0474607 -0.0237267 -0.0047446 -0.00949279 -0.014253 -0.0190367 -0.00948905 -0.0189845 -0.0285019 -0.0380706 -0.0142337 -0.0284752 -0.0427434 -0.0570953 -0.0189791 -0.0379675 -0.0569796 -0.076094 
</DataArray>
<DataArray Name="Warping_Y" format="ascii" type="Float64">
-0.158796 0.165543 -0.0420175 0.0487613 0.113633 0.152565 0.106084 0.144171 0.127521 0.115615 0.108467 -0.218707 0.0930884 0.0541033 -0.0108658 -0.101805 -0.216327 -0.209184 -0.197269 -0.180544 -0.0636355 0.0273053 0.0922322 0.131187 -0.0803634 0.0105901 0.0755554 0.11453 -0.0922812 -0.0013342 0.0636369 0.10262 -0.099425 -0.00848345 0.0564865 0.0954716 -0.158796 0.152565 0.113633 0.0487613 -0.0420175 -0.218707 -0.180544 -0.197269 -0.209184 -0.216327 -0.101805 -0.0108658 0.0541033 0.0930884 0.131187 0.0922322 0.0273053 -0.0636355 0.11453 0.0755554 0.0105901 -0.0803634 0.10262 0.0636369 -0.0013342 -0.0922812 0.0954716 0.0564865 -0.00848345 -0.099425 0.165543 0.108467 0.115615 0.127521 0.144171 -0.158796 0.152565 0.113633 0.0487613 -0.0420175 -0.180544 -0.197269 -0.209184 -0.216327 -0.099425 -0.00848345 0.0564865 0.0954716 -0.0922812 -0.0013342 0.0636369 0.10262 -0.0803634 0.0105901 0.0755554 0.11453 -0.0636355 0.0273053 0.0922322 0.131187 -0.158796 -0.216327 -0.209184 -0.197269 -0.180544 -0.0420175 0.0487613 0.113633 0.152565 0.0954716 0.0564865 -0.00848345 -0.099425 0.10262 0.0636369 -0.0013342 -0.0922812 0.11453 0.0755554 0.0105901 -0.0803634 0.131187 0.0922322 0.0273053 -0.0636355 
</DataArray>
<DataArray Name="Warping_Z" format="ascii" type="Float64">
0 0 0 0 0 0 0 0 0 0 0 0 0 0 0 0 0 0 0 0 0 0 0 0 0 0 0 0 0 0 0 0 0 0 0 0 0 0 0 0 0 0 0 0 0 0 0 0 0 0 0 0 0 0 0 0 0 0 0 0 0 0 0 0 0 0 0 0 0 0 0 0 0 0 0 0 0 0 0 0 0 0 0 0 0 0 0 0 0 0 0 0 0 0 0 0 0 0 0 0 0 0 0 0 0 0 0 0 0 0 0 0 0 0 0 0 0 0 0 0 0 
</DataArray>
</PointData>
<CellData>
<DataArray Name="MaterialId" format="ascii" type="Float64">
3 3 3 3 3 3 3 3 3 3 3 3 3 3 3 3 3 3 3 3 3 3 3 3 3 3 3 3 3 3 3 3 3 3 3 3 3 3 3 3 3 3 3 3 3 3 3 3 3 3 3 3 3 3 3 3 3 3 3 3 3 3 3 3 3 3 3 3 3 3 3 3 3 3 3 3 3 3 3 3 3 3 3 3 3 3 3 3 3 3 3 3 3 3 3 3 3 3 3 3 
</DataArray>
<DataArray Name="FiberAngle" format="ascii" type="Float64">
90 90 90 90 90 90 90 90 90 90 90 90 90 90 90 90 90 90 90 90 90 90 90 90 90 90 90 90 90 90 90 90 90 90 90 90 90 90 90 90 90 90 90 90 90 90 90 90 90 90 90 90 90 90 90 90 90 90 90 90 90 90 90 90 90 90 90 90 90 90 90 90 90 90 90 90 90 90 90 90 90 90 90 90 90 90 90 90 90 90 90 90 90 90 90 90 90 90 90 90 
</DataArray>
<DataArray Name="Strain_11" format="ascii" type="Float64">
2.14709 2.14537 2.14409 2.14327 2.14289 1.66009 1.66175 1.66331 1.66414 1.66448 1.18715 1.18642 1.18661 1.18703 1.18729 0.712034 0.711889 0.711767 0.711808 0.711869 0.237378 0.237274 0.237231 0.237222 0.23723 -0.237378 -0.237274 -0.237231 -0.237222 -0.23723 -0.712034 -0.711889 -0.711767 -0.711808 -0.711869 -1.18715 -1.18642 -1.18661 -1.18703 -1.18729 -1.66009 -1.66175 -1.66331 -1.66414 -1.66448 -2.14709 -2.14537 -2.14409 -2.14327 -2.14289 2.14289 2.14327 2.14409 2.14537 2.14709 1.66448 1.66414 1.66331 1.66175 1.66009 1.18729 1.18703 1.18661 1.18642 1.18715 0.711869 0.711808 0.711767 0.711889 0.712034 0.23723 0.237222 0.237231 0.237274 0.237378 -0.23723 -0.237222 -0.237231 -0.237274 -0.237378 -0.711869 -0.711808 -0.711767 -0.711889 -0.712034 -1.18729 -1.18703 -1.18661 -1.18642 -1.18715 -1.66448 -1.66414 -1.66331 -1.66175 -1.66009 -2.14289 -2.14327 -2.14409 -2.14537 -2.14709 
</DataArray>
<DataArray Name="Strain_22" format="ascii" type="Float64">
11.6844 11.6907 11.6904 11.6902 11.6901 9.08598 9.09471 9.09502 9.09443 9.09406 6.48994 6.49461 6.49682 6.49705 6.49695 3.89429 3.89644 3.89788 3.89842 3.89851 1.29814 1.29877 1.29927 1.29948 1.29954 -1.29814 -1.29877 -1.29927 -1.29948 -1.29954 -3.89429 -3.89644 -3.89788 -3.89842 -3.89851 -6.48994 -6.49461 -6.49682 -6.49705 -6.49695 -9.08598 -9.09471 -9.09502 -9.09443 -9.09406 -11.6844 -11.6907 -11.6904 -11.6902 -11.6901 11.6901 11.6902 11.6904 11.6907 11.6844 9.09406 9.09443 9.09502 9.09471 9.08598 6.49695 6.49705 6.49682 6.49461 6.48994 3.89851 3.89842 3.89788 3.89644 3.89429 1.29954 1.29948 1.29927 1.29877 1.29814 -1.29954 -1.29948 -1.29927 -1.29877 -1.29814 -3.89851 -3.89842 -3.89788 -3.89644 -3.89429 -6.49695 -6.49705 -6.49682 -6.49461 -6.48994 -9.09406 -9.09443 -9.09502 -9.09471 -9.08598 -11.6901 -11.6902 -11.6904 -11.6907 -11.6844 
</DataArray>
<DataArray Name="Strain_12" format="ascii" type="Float64">
0.0160376 0.0143312 0.00814893 0.00402994 0.00120595 -0.00715057 0.00116081 0.0039187 0.00296301 0.00104657 -0.00382269 -0.00559017 -0.00285959 -0.00109599 -0.000266548 -0.00284728 -0.00518254 -0.00455316 -0.00276811 -0.000909658 -0.00221708 -0.00471929 -0.00465488 -0.00312885 -0.00107631 -0.00221708 -0.00471929 -0.00465488 -0.00312885 -0.00107631 -0.00284728 -0.00518254 -0.00455316 -0.00276811 -0.000909658 -0.00382269 -0.00559017 -0.00285959 -0.00109599 -0.000266548 -0.00715057 0.00116081 0.0039187 0.00296301 0.00104657 0.0160376 0.0143312 0.00814893 0.00402994 0.00120595 -0.00120595 -0.00402994 -0.00814893 -0.0143312 -0.0160376 -0.00104657 -0.00296301 -0.0039187 -0.00116081 0.00715057 0.000266548 0.00109599 0.00285959 0.00559017 0.00382269 0.000909658 0.00276811 0.00455316 0.00518254 0.00284728 0.00107631 0.00312885 0.00465488 0.00471929 0.00221708 0.00107631 0.00312885 0.00465488 0.00471929 0.00221708 0.000909658 0.00276811 0.00455316 0.00518254 0.00284728 0.000266548 0.00109599 0.00285959 0.00559017 0.00382269 -0.00104657 -0.00296301 -0.0039187 -0.00116081 0.00715057 -0.00120595 -0.00402994 -0.00814893 -0.0143312 -0.0160376 
</DataArray>
<DataArray Name="Strain_13" format="ascii" type="Float64">
1.27816e-16 1.29316e-16 1.29636e-16 1.29731e-16 1.29756e-16 1.0191e-16 1.00979e-16 1.00892e-16 1.00876e-16 1.00872e-16 7.28769e-17 7.25556e-17 7.22396e-17 7.20986e-17 7.20456e-17 4.37562e-17 4.35856e-17 4.34331e-17 4.33077e-17 4.32486e-17 1.45908e-17 1.45354e-17 1.44871e-17 1.44463e-17 1.44229e-17 -1.45908e-17 -1.45354e-17 -1.44871e-17 -1.44463e-17 -1.44229e-17 -4.37562e-17 -4.35856e-17 -4.34331e-17 -4.33077e-17 -4.32486e-17 -7.28769e-17 -7.25556e-17 -7.22396e-17 -7.20986e-17 -7.20456e-17 -1.0191e-16 -1.00979e-16 -1.00892e-16 -1.00876e-16 -1.00872e-16 -1.27816e-16 -1.29316e-16 -1.29636e-16 -1.29731e-16 -1.29756e-16 1.29756e-16 1.29731e-16 1.29636e-16 1.29316e-16 1.27816e-16 1.00872e-16 1.00876e-16 1.00892e-16 1.00979e-16 1.0191e-16 7.20456e-17 7.20986e-17 7.22396e-17 7.25556e-17 7.28769e-17 4.32486e-17 4.33077e-17 4.34331e-17 4.35856e-17 4.37562e-17 1.44229e-17 1.44463e-17 1.44871e-17 1.45354e-17 1.45908e-17 -1.44229e-17 -1.44463e-17 -1.44871e-17 -1.45354e-17 -1.45908e-17 -4.32486e-17 -4.33077e-17 -4.34331e-17 -4.35856e-17 -4.37562e-17 -7.20456e-17 -7.20986e-17 -7.22396e-17 -7.25556e-17 -7.28769e-17 -1.00872e-16 -1.00876e-16 -1.00892e-16 -1.00979e-16 -1.0191e-16 -1.29756e-16 -1.29731e-16 -1.29636e-16 -1.29316e-16 -1.27816e-16 
</DataArray>
<DataArray Name="Strain_23" format="ascii" type="Float64">
1.26842e-16 1.01054e-16 7.22468e-17 4.33545e-17 1.44505e-17 1.28703e-16 1.00247e-16 7.19733e-17 4.3267e-17 1.44328e-17 1.29691e-16 1.0069e-16 7.18877e-17 4.31641e-17 1.4394e-17 1.30158e-16 1.01068e-16 7.20947e-17 4.32208e-17 1.44029e-17 1.30374e-16 1.01248e-16 7.22255e-17 4.32921e-17 1.44229e-17 1.30374e-16 1.01248e-16 7.22255e-17 4.32921e-17 1.44229e-17 1.30158e-16 1.01068e-16 7.20947e-17 4.32208e-17 1.44029e-17 1.29691e-16 1.0069e-16 7.18877e-17 4.31641e-17 1.4394e-17 1.28703e-16 1.00247e-16 7.19733e-17 4.3267e-17 1.44328e-17 1.26842e-16 1.01054e-16 7.22468e-17 4.33545e-17 1.44505e-17 -1.44505e-17 -4.33545e-17 -7.22468e-17 -1.01054e-16 -1.26842e-16 -1.44328e-17 -4.3267e-17 -7.19733e-17 -1.00247e-16 -1.28703e-16 -1.4394e-17 -4.31641e-17 -7.18877e-17 -1.0069e-16 -1.29691e-16 -1.44029e-17 -4.32208e-17 -7.20947e-17 -1.01068e-16 -1.30158e-16 -1.44229e-17 -4.32921e-17 -7.22255e-17 -1.01248e-16 -1.30374e-16 -1.44229e-17 -4.32921e-17 -7.22255e-17 -1.01248e-16 -1.30374e-16 -1.44029e-17 -4.32208e-17 -7.20947e-17 -1.01068e-16 -1.30158e-16 -1.4394e-17 -4.31641e-17 -7.18877e-17 -1.0069e-16 -1.29691e-16 -1.44328e-17 -4.3267e-17 -7.19733e-17 -1.00247e-16 -1.28703e-16 -1.44505e-17 -4.33545e-17 -7.22468e-17 -1.01054e-16 -1.26842e-16 
</DataArray>
<DataArray Name="Strain_33" format="ascii" type="Float64">
-0.045 -0.045 -0.045 -0.045 -0.045 -0.035 -0.035 -0.035 -0.035 -0.035 -0.025 -0.025 -0.025 -0.025 -0.025 -0.015 -0.015 -0.015 -0.015 -0.015 -0.005 -0.005 -0.005 -0.005 -0.005 0.005 0.005 0.005 0.005 0.005 0.015 0.015 0.015 0.015 0.015 0.025 0.025 0.025 0.025 0.025 0.035 0.035 0.035 0.035 0.035 0.045 0.045 0.045 0.045 0.045 -0.045 -0.045 -0.045 -0.045 -0.045 -0.035 -0.035 -0.035 -0.035 -0.035 -0.025 -0.025 -0.025 -0.025 -0.025 -0.015 -0.015 -0.015 -0.015 -0.015 -0.005 -0.005 -0.005 -0.005 -0.005 0.005 0.005 0.005 0.005 0.005 0.015 0.015 0.015 0.015 0.015 0.025 0.025 0.025 0.025 0.025 0.035 0.035 0.035 0.035 0.035 0.045 0.045 0.045 0.045 0.045 
</DataArray>
<DataArray Name="Stress_11" format="ascii" type="Float64">
1423.95 1423.31 1422.67 1422.26 1422.07 1102.61 1103.7 1104.47 1104.87 1105.02 788.249 788.039 788.2 788.415 788.54 472.834 472.83 472.816 472.853 472.886 157.629 157.598 157.592 157.595 157.6 -157.629 -157.598 -157.592 -157.595 -157.6 -472.834 -472.83 -472.816 -472.853 -472.886 -788.249 -788.039 -788.2 -788.415 -788.54 -1102.61 -1103.7 -1104.47 -1104.87 -1105.02 -1423.95 -1423.31 -1422.67 -1422.26 -1422.07 1422.07 1422.26 1422.67 1423.31 1423.95 1105.02 1104.87 1104.47 1103.7 1102.61 788.54 788.415 788.2 788.039 788.249 472.886 472.853 472.816 472.83 472.834 157.6 157.595 157.592 157.598 157.629 -157.6 -157.595 -157.592 -157.598 -157.629 -472.886 -472.853 -472.816 -472.83 -472.834 -788.54 -788.415 -788.2 -788.039 -788.249 -1105.02 -1104.87 -1104.47 -1103.7 -1102.61 -1422.07 -1422.26 -1422.67 -1423.31 -1423.95 
</DataArray>
<DataArray Name="Stress_22" format="ascii" type="Float64">
1593.68 1594.45 1594.37 1594.32 1594.3 1238.97 1240.16 1240.26 1240.2 1240.17 885.017 885.604 885.899 885.942 885.937 531.045 531.321 531.506 531.577 531.591 177.022 177.101 177.164 177.192 177.2 -177.022 -177.101 -177.164 -177.192 -177.2 -531.045 -531.321 -531.506 -531.577 -531.591 -885.017 -885.604 -885.899 -885.942 -885.937 -1238.97 -1240.16 -1240.26 -1240.2 -1240.17 -1593.68 -1594.45 -1594.37 -1594.32 -1594.3 1594.3 1594.32 1594.37 1594.45 1593.68 1240.17 1240.2 1240.26 1240.16 1238.97 885.937 885.942 885.899 885.604 885.017 531.591 531.577 531.506 531.321 531.045 177.2 177.192 177.164 177.101 177.022 -177.2 -177.192 -177.164 -177.101 -177.022 -531.591 -531.577 -531.506 -531.321 -531.045 -885.937 -885.942 -885.899 -885.604 -885.017 -1240.17 -1240.2 -1240.26 -1240.16 -1238.97 -1594.3 -1594.32 -1594.37 -1594.45 -1593.68 
</DataArray>
<DataArray Name="Stress_12" format="ascii" type="Float64">
0.962257 0.859872 0.488936 0.241796 0.0723568 -0.429034 0.0696486 0.235122 0.177781 0.0627943 -0.229361 -0.33541 -0.171576 -0.0657596 -0.0159929 -0.170837 -0.310953 -0.273189 -0.166087 -0.0545795 -0.133025 -0.283157 -0.279293 -0.187731 -0.0645788 -0.133025 -0.283157 -0.279293 -0.187731 -0.0645788 -0.170837 -0.310953 -0.273189 -0.166087 -0.0545795 -0.229361 -0.33541 -0.171576 -0.0657596 -0.0159929 -0.429034 0.0696486 0.235122 0.177781 0.0627943 0.962257 0.859872 0.488936 0.241796 0.0723568 -0.0723568 -0.241796 -0.488936 -0.859872 -0.962257 -0.0627943 -0.177781 -0.235122 -0.0696486 0.429034 0.0159929 0.0657596 0.171576 0.33541 0.229361 0.0545795 0.166087 0.273189 0.310953 0.170837 0.0645788 0.187731 0.279293 0.283157 0.133025 0.0645788 0.187731 0.279293 0.283157 0.133025 0.0545795 0.166087 0.273189 0.310953 0.170837 0.0159929 0.0657596 0.171576 0.33541 0.229361 -0.0627943 -0.177781 -0.235122 -0.0696486 0.429034 -0.0723568 -0.241796 -0.488936 -0.859872 -0.962257 
</DataArray>
<DataArray Name="Stress_13" format="ascii" type="Float64">
4.95708e-14 4.96235e-14 4.96162e-14 4.96048e-14 4.95983e-14 3.84997e-14 3.84763e-14 3.85035e-14 3.85201e-14 3.85271e-14 2.75334e-14 2.74979e-14 2.74823e-14 2.74825e-14 2.74848e-14 1.65165e-14 1.65027e-14 1.64906e-14 1.64838e-14 1.64816e-14 5.50649e-15 5.50084e-15 5.49692e-15 5.49426e-15 5.49299e-15 -5.50649e-15 -5.50084e-15 -5.49692e-15 -5.49426e-15 -5.49299e-15 -1.65165e-14 -1.65027e-14 -1.64906e-14 -1.64838e-14 -1.64816e-14 -2.75334e-14 -2.74979e-14 -2.74823e-14 -2.74825e-14 -2.74848e-14 -3.84997e-14 -3.84763e-14 -3.85035e-14 -3.85201e-14 -3.85271e-14 -4.95708e-14 -4.96235e-14 -4.96162e-14 -4.96048e-14 -4.95983e-14 4.95983e-14 4.96048e-14 4.96162e-14 4.96235e-14 4.95708e-14 3.85271e-14 3.85201e-14 3.85035e-14 3.84763e-14 3.84997e-14 2.74848e-14 2.74825e-14 2.74823e-14 2.74979e-14 2.75334e-14 1.64816e-14 1.64838e-14 1.64906e-14 1.65027e-14 1.65165e-14 5.49299e-15 5.49426e-15 5.49692e-15 5.50084e-15 5.50649e-15 -5.49299e-15 -5.49426e-15 -5.49692e-15 -5.50084e-15 -5.50649e-15 -1.64816e-14 -1.64838e-14 -1.64906e-14 -1.65027e-14 -1.65165e-14 -2.74848e-14 -2.74825e-14 -2.74823e-14 -2.74979e-14 -2.75334e-14 -3.85271e-14 -3.85201e-14 -3.85035e-14 -3.84763e-14 -3.84997e-14 -4.95983e-14 -4.96048e-14 -4.96162e-14 -4.96235e-14 -4.95708e-14 
</DataArray>
<DataArray Name="Stress_23" format="ascii" type="Float64">
6.3519e-15 5.06148e-15 3.61733e-15 2.17019e-15 7.23265e-16 6.43075e-15 5.01305e-15 3.60107e-15 2.16517e-15 7.22281e-16 6.48222e-15 5.03109e-15 3.59263e-15 2.15753e-15 7.19539e-16 6.50616e-15 5.05025e-15 3.60195e-15 2.15934e-15 7.19588e-16 6.51735e-15 5.05951e-15 3.60843e-15 2.16269e-15 7.20484e-16 6.51735e-15 5.05951e-15 3.60843e-15 2.16269e-15 7.20484e-16 6.50616e-15 5.05025e-15 3.60195e-15 2.15934e-15 7.19588e-16 6.48222e-15 5.03109e-15 3.59263e-15 2.15753e-15 7.19539e-16 6.43075e-15 5.01305e-15 3.60107e-15 2.16517e-15 7.22281e-16 6.3519e-15 5.06148e-15 3.61733e-15 2.17019e-15 7.23265e-16 -7.23265e-16 -2.17019e-15 -3.61733e-15 -5.06148e-15 -6.3519e-15 -7.22281e-16 -2.16517e-15 -3.60107e-15 -5.01305e-15 -6.43075e-15 -7.19539e-16 -2.15753e-15 -3.59263e-15 -5.03109e-15 -6.48222e-15 -7.19588e-16 -2.15934e-15 -3.60195e-15 -5.05025e-15 -6.50616e-15 -7.20484e-16 -2.16269e-15 -3.60843e-15 -5.05951e-15 -6.51735e-15 -7.20484e-16 -2.16269e-15 -3.60843e-15 -5.05951e-15 -6.51735e-15 -7.19588e-16 -2.15934e-15 -3.60195e-15 -5.05025e-15 -6.50616e-15 -7.19539e-16 -2.15753e-15 -3.59263e-15 -5.03109e-15 -6.48222e-15 -7.22281e-16 -2.16517e-15 -3.60107e-15 -5.01305e-15 -6.43075e-15 -7.23265e-16 -2.17019e-15 -3.61733e-15 -5.06148e-15 -6.3519e-15 
</DataArray>
<DataArray Name="Stress_33" format="ascii" type="Float64">
476.593 476.764 476.714 476.682 476.666 370.306 370.668 370.729 370.734 370.732 264.546 264.689 264.773 264.795 264.799 158.731 158.803 158.85 158.871 158.876 52.9132 52.9322 52.9483 52.9557 52.9581 -52.9132 -52.9322 -52.9483 -52.9557 -52.9581 -158.731 -158.803 -158.85 -158.871 -158.876 -264.546 -264.689 -264.773 -264.795 -264.799 -370.306 -370.668 -370.729 -370.734 -370.732 -476.593 -476.764 -476.714 -476.682 -476.666 476.666 476.682 476.714 476.764 476.593 370.732 370.734 370.729 370.668 370.306 264.799 264.795 264.773 264.689 264.546 158.876 158.871 158.85 158.803 158.731 52.9581 52.9557 52.9483 52.9322 52.9132 -52.9581 -52.9557 -52.9483 -52.9322 -52.9132 -158.876 -158.871 -158.85 -158.803 -158.731 -264.799 -264.795 -264.773 -264.689 -264.546 -370.732 -370.734 -370.729 -370.668 -370.306 -476.666 -476.682 -476.714 -476.764 -476.593 
</DataArray>
</CellData>
<Points>
<DataArray NumberOfComponents="3" format="ascii" type="Float64">
-0.05 -0.05 0 -0.05 0 0 -0.05 -0.04 0 -0.05 -0.03 0 -0.05 -0.02 0 -0.05 -0.01 0 0 0 0 -0.04 0 0 -0.03 0 0 -0.02 0 0 -0.01 0 0 0 -0.05 0 0 -0.01 0 0 -0.02 0 0 -0.03 0 0 -0.04 0 -0.01 -0.05 0 -0.02 -0.05 0 -0.03 -0.05 0 -0.04 -0.05 0 -0.04 -0.04 0 -0.04 -0.03 0 -0.04 -0.02 0 -0.04 -0.01 0 -0.03 -0.04 0 -0.03 -0.03 0 -0.03 -0.02 0 -0.03 -0.01 0 -0.02 -0.04 0 -0.02 -0.03 0 -0.02 -0.02 0 -0.02 -0.01 0 -0.01 -0.04 0 -0.01 -0.03 0 -0.01 -0.02 0 -0.01 -0.01 0 -0.05 0.05 0 -0.05 0.01 0 -0.05 0.02 0 -0.05 0.03 0 -0.05 0.04 0 0 0.05 0 -0.04 0.05 0 -0.03 0.05 0 -0.02 0.05 0 -0.01 0.05 0 0 0.04 0 0 0.03 0 0 0.02 0 0 0.01 0 -0.04 0.01 0 -0.04 0.02 0 -0.04 0.03 0 -0.04 0.04 0 -0.03 0.01 0 -0.03 0.02 0 -0.03 0.03 0 -0.03 0.04 0 -0.02 0.01 0 -0.02 0.02 0 -0.02 0.03 0 -0.02 0.04 0 -0.01 0.01 0 -0.01 0.02 0 -0.01 0.03 0 -0.01 0.04 0 0.05 0 0 0.01 0 0 0.02 0 0 0.03 0 0 0.04 0 0 0.05 -0.05 0 0.05 -0.01 0 0.05 -0.02 0 0.05 -0.03 0 0.05 -0.04 0 0.04 -0.05 0 0.03 -0.05 0 0.02 -0.05 0 0.01 -0.05 0 0.01 -0.04 0 0.01 -0.03 0 0.01 -0.02 0 0.01 -0.01 0 0.02 -0.04 0 0.02 -0.03 0 0.02 -0.02 0 0.02 -0.01 0 0.03 -0.04 0 0.03 -0.03 0 0.03 -0.02 0 0.03 -0.01 0 0.04 -0.04 0 0.04 -0.03 0 0.04 -0.02 0 0.04 -0.01 0 0.05 0.05 0 0.01 0.05 0 0.02 0.05 0 0.03 0.05 0 0.04 0.05 0 0.05 0.04 0 0.05 0.03 0 0.05 0.02 0 0.05 0.01 0 0.01 0.01 0 0.01 0.02 0 0.01 0.03 0 0.01 0.04 0 0.02 0.01 0 0.02 0.02 0 0.02 0.03 0 0.02 0.04 0 0.03 0.01 0 0.03 0.02 0 0.03 0.03 0 0.03 0.04 0 0.04 0.01 0 0.04 0.02 0 0.04 0.03 0 0.04 0.04 0 
</DataArray>
</Points>
<Cells>
<DataArray Name="connectivity" format="ascii" type="Int64">
0 19 20 2 19 18 24 20 18 17 28 24 17 16 32 28 16 11 15 32 2 20 21 3 20 24 25 21 24 28 29 25 28 32 33 29 32 15 14 33 3 21 22 4 21 25 26 22 25 29 30 26 29 33 34 30 33 14 13 34 4 22 23 5 22 26 27 23 26 30 31 27 30 34 35 31 34 13 12 35 5 23 7 1 23 27 8 7 27 31 9 8 31 35 10 9 35 12 6 10 1 7 50 37 7 8 54 50 8 9 58 54 9 10 62 58 10 6 49 62 37 50 51 38 50 54 55 51 54 58 59 55 58 62 63 59 62 49 48 63 38 51 52 39 51 55 56 52 55 59 60 56 59 63 64 60 63 48 47 64 39 52 53 40 52 56 57 53 56 60 61 57 60 64 65 61 64 47 46 65 40 53 42 36 53 57 43 42 57 61 44 43 61 65 45 44 65 46 41 45 11 79 80 15 79 78 84 80 78 77 88 84 77 76 92 88 76 71 75 92 15 80 81 14 80 84 85 81 84 88 89 85 88 92 93 89 92 75 74 93 14 81 82 13 81 85 86 82 85 89 90 86 89 93 94 90 93 74 73 94 13 82 83 12 82 86 87 83 86 90 91 87 90 94 95 91 94 73 72 95 12 83 67 6 83 87 68 67 87 91 69 68 91 95 70 69 95 72 66 70 6 67 105 49 67 68 109 105 68 69 113 109 69 70 117 113 70 66 104 117 49 105 106 48 105 109 110 106 109 113 114 110 113 117 118 114 117 104 103 118 48 106 107 47 106 110 111 107 110 114 115 111 114 118 119 115 118 103 102 119 47 107 108 46 107 111 112 108 111 115 116 112 115 119 120 116 119 102 101 120 46 108 97 41 108 112 98 97 112 116 99 98 116 120 100 99 120 101 96 100 
</DataArray>
<DataArray Name="offsets" format="ascii" type="Int64">
4 8 12 16 20 24 28 32 36 40 44 48 52 56 60 64 68 72 76 80 84 88 92 96 100 104 108 112 116 120 124 128 132 136 140 144 148 152 156 160 164 168 172 176 180 184 188 192 196 200 204 208 212 216 220 224 228 232 236 240 244 248 252 256 260 264 268 272 276 280 284 288 292 296 300 304 308 312 316 320 324 328 332 336 340 344 348 352 356 360 364 368 372 376 380 384 388 392 396 400 
</DataArray>
<DataArray Name="types" format="ascii" type="Int8">
9 9 9 9 9 9 9 9 9 9 9 9 9 9 9 9 9 9 9 9 9 9 9 9 9 9 9 9 9 9 9 9 9 9 9 9 9 9 9 9 9 9 9 9 9 9 9 9 9 9 9 9 9 9 9 9 9 9 9 9 9 9 9 9 9 9 9 9 9 9 9 9 9 9 9 9 9 9 9 9 9 9 9 9 9 9 9 9 9 9 9 9 9 9 9 9 9 9 9 9 
</DataArray>
</Cells>
</Piece>
</UnstructuredGrid>
</VTKFile>
