<?xml version="1.0"?>
<VTKFile byte_order="LittleEndian" type="UnstructuredGrid" version="0.1">
<UnstructuredGrid>
<Piece NumberOfCells="100" NumberOfPoints="121">
<PointData>
<DataArray Name="Warping_X" format="ascii" type="Float64">
1.19286e-16 1.13842e-31 8.71466e-17 5.92536e-17 3.62881e-17 1.71374e-17 1.17667e-31 1.18407e-31 1.22391e-31 1.22435e-31 1.18726e-31 -1.06871e-31 1.23449e-31 9.90297e-32 3.24911e-32 -4.73137e-32 3.19373e-17 6.22206e-17 8.89965e-17 1.09804e-16 8.21491e-17 5.61028e-17 3.43868e-17 1.62403e-17 6.83676e-17 4.73837e-17 2.91964e-17 1.38156e-17 4.85212e-17 3.41083e-17 2.1162e-17 1.00409e-17 2.50959e-17 1.77952e-17 1.10997e-17 5.27861e-18 -1.19286e-16 -1.71374e-17 -3.62881e-17 -5.92536e-17 -8.71466e-17 -1.16645e-31 -1.09804e-16 -8.89965e-17 -6.22206e-17 -3.19373e-17 -9.49265e-32 -3.94406e-32 3.36088e-32 8.49158e-32 -1.62403e-17 -3.43868e-17 -5.61028e-17 -8.21491e-17 -1.38156e-17 -2.91964e-17 -4.73837e-17 -6.83676e-17 -1.00409e-17 -2.1162e-17 -3.41083e-17 -4.85212e-17 -5.27861e-18 -1.10997e-17 -1.77952e-17 -2.50959e-17 1.13783e-31 1.17225e-31 1.16213e-31 1.12208e-31 1.17567e-31 -1.19286e-16 -1.71374e-17 -3.62881e-17 -5.92536e-17 -8.71466e-17 -1.09804e-16 -8.89965e-17 -6.22206e-17 -3.19373e-17 -2.50959e-17 -1.77952e-17 -1.10997e-17 -5.27861e-18 -4.85212e-17 -3.41083e-17 -2.1162e-17 -1.00409e-17 -6.83676e-17 -4.73837e-17 -2.91964e-17 -1.38156e-17 -8.21491e-17 -5.61028e-17 -3.43868e-17 -1.62403e-17 1.19286e-16 3.19373e-17 6.22206e-17 8.89965e-17 1.09804e-16 8.71466e-17 5.92536e-17 3.62881e-17 1.71374e-17 5.27861e-18 1.10997e-17 1.77952e-17 2.50959e-17 1.00409e-17 2.1162e-17 3.41083e-17 4.85212e-17 1.38156e-17 2.91964e-17 4.73837e-17 6.83676e-17 1.62403e-17 3.43868e-17 5.61028e-17 8.21491e-17 
</DataArray>
<DataArray Name="Warping_Y" format="ascii" type="Float64">
-5.76328e-17 -4.27902e-17 -5.47613e-17 -5.09899e-17 -4.68827e-17 -4.38773e-17 4.20025e-17 -1.64657e-17 7.51593e-18 2.62297e-17 3.7999e-17 2.18532e-17 4.14907e-17 3.9746e-17 3.62157e-17 3.02985e-17 1.872e-17 9.38516e-18 -6.06412e-18 -2.77352e-17 -2.37893e-17 -2.08641e-17 -1.85614e-17 -1.70136e-17 3.27593e-21 3.74982e-18 5.9532e-18 7.13875e-18 1.67936e-17 2.16901e-17 2.44686e-17 2.58276e-17 2.69123e-17 3.25676e-17 3.58926e-17 3.7522e-17 -5.76328e-17 -4.38773e-17 -4.68827e-17 -5.09899e-17 -5.47613e-17 2.18532e-17 -2.77352e-17 -6.06412e-18 9.38516e-18 1.872e-17 3.02985e-17 3.62157e-17 3.9746e-17 4.14907e-17 -1.70136e-17 -1.85614e-17 -2.08641e-17 -2.37893e-17 7.13875e-18 5.9532e-18 3.74982e-18 3.27593e-21 2.58276e-17 2.44686e-17 2.16901e-17 1.67936e-17 3.7522e-17 3.58926e-17 3.25676e-17 2.69123e-17 -4.27902e-17 3.7999e-17 2.62297e-17 7.51593e-18 -1.64657e-17 -5.76328e-17 -4.38773e-17 -4.68827e-17 -5.09899e-17 -5.47613e-17 -2.77352e-17 -6.06412e-18 9.38516e-18 1.872e-17 2.69123e-17 3.25676e-17 3.58926e-17 3.7522e-17 1.67936e-17 2.16901e-17 2.44686e-17 2.58276e-17 3.27593e-21 3.74982e-18 5.9532e-18 7.13875e-18 -2.37893e-17 -2.08641e-17 -1.85614e-17 -1.70136e-17 -5.76328e-17 1.872e-17 9.38516e-18 -6.06412e-18 -2.77352e-17 -5.47613e-17 -5.09899e-17 -4.68827e-17 -4.38773e-17 3.7522e-17 3.58926e-17 3.25676e-17 2.69123e-17 2.58276e-17 2.44686e-17 2.16901e-17 1.67936e-17 7.13875e-18 5.9532e-18 3.74982e-18 3.27593e-21 -1.70136e-17 -1.85614e-17 -2.08641e-17 -2.37893e-17 
</DataArray>
<DataArray Name="Warping_Z" format="ascii" type="Float64">
0 0 0 0 0 0 0 0 0 0 0 0 0 0 0 0 0 0 0 0 0 0 0 0 0 0 0 0 0 0 0 0 0 0 0 0 0 0 0 0 0 0 0 0 0 0 0 0 0 0 0 0 0 0 0 0 0 0 0 0 0 0 0 0 0 0 0 0 0 0 0 0 0 0 0 0 0 0 0 0 0 0 0 0 0 0 0 0 0 0 0 0 0 0 0 0 0 0 0 0 0 0 0 0 0 0 0 0 0 0 0 0 0 0 0 0 0 0 0 0 0 
</DataArray>
</PointData>
<CellData>
<DataArray Name="MaterialId" format="ascii" type="Float64">
3 3 3 3 3 3 3 3 3 3 3 3 3 3 3 3 3 3 3 3 3 3 3 3 3 3 3 3 3 3 3 3 3 3 3 3 3 3 3 3 3 3 3 3 3 3 3 3 3 3 3 3 3 3 3 3 3 3 3 3 3 3 3 3 3 3 3 3 3 3 3 3 3 3 3 3 3 3 3 3 3 3 3 3 3 3 3 3 3 3 3 3 3 3 3 3 3 3 3 3 
</DataArray>
<DataArray Name="FiberAngle" format="ascii" type="Float64">
90 90 90 90 90 90 90 90 90 90 90 90 90 90 90 90 90 90 90 90 90 90 90 90 90 90 90 90 90 90 90 90 90 90 90 90 90 90 90 90 90 90 90 90 90 90 90 90 90 90 90 90 90 90 90 90 90 90 90 90 90 90 90 90 90 90 90 90 90 90 90 90 90 90 90 90 90 90 90 90 90 90 90 90 90 90 90 90 90 90 90 90 90 90 90 90 90 90 90 90 
</DataArray>
<DataArray Name="Strain_11" format="ascii" type="Float64">
-7.23968e-16 -1.72945e-15 -2.33112e-15 -2.68542e-15 -2.85166e-15 -4.07415e-16 -1.12503e-15 -1.65609e-15 -1.98691e-15 -2.14456e-15 -2.52608e-16 -6.9547e-16 -1.0655e-15 -1.31876e-15 -1.44475e-15 -1.39924e-16 -3.80752e-16 -5.9046e-16 -7.41225e-16 -8.18915e-16 -4.48578e-17 -1.21234e-16 -1.88736e-16 -2.38112e-16 -2.63931e-16 4.48578e-17 1.21234e-16 1.88736e-16 2.38112e-16 2.63931e-16 1.39924e-16 3.80752e-16 5.9046e-16 7.41225e-16 8.18915e-16 2.52608e-16 6.9547e-16 1.0655e-15 1.31876e-15 1.44475e-15 4.07415e-16 1.12503e-15 1.65609e-15 1.98691e-15 2.14456e-15 7.23968e-16 1.72945e-15 2.33112e-15 2.68542e-15 2.85166e-15 -2.85166e-15 -2.68542e-15 -2.33112e-15 -1.72945e-15 -7.23968e-16 -2.14456e-15 -1.98691e-15 -1.65609e-15 -1.12503e-15 -4.07415e-16 -1.44475e-15 -1.31876e-15 -1.0655e-15 -6.9547e-16 -2.52608e-16 -8.18915e-16 -7.41225e-16 -5.9046e-16 -3.80752e-16 -1.39924e-16 -2.63931e-16 -2.38112e-16 -1.88736e-16 -1.21234e-16 -4.48578e-17 2.63931e-16 2.38112e-16 1.88736e-16 1.21234e-16 4.48578e-17 8.18915e-16 7.41225e-16 5.9046e-16 3.80752e-16 1.39924e-16 1.44475e-15 1.31876e-15 1.0655e-15 6.9547e-16 2.52608e-16 2.14456e-15 1.98691e-15 1.65609e-15 1.12503e-15 4.07415e-16 2.85166e-15 2.68542e-15 2.33112e-15 1.72945e-15 7.23968e-16 
</DataArray>
<DataArray Name="Strain_22" format="ascii" type="Float64">
3.40866e-16 5.00663e-16 6.73794e-16 7.80038e-16 8.31883e-16 3.34829e-16 3.33588e-16 4.32149e-16 5.27589e-16 5.78628e-16 3.205e-16 2.25305e-16 2.49097e-16 3.05175e-16 3.42761e-16 2.27658e-16 1.36668e-16 1.27224e-16 1.49415e-16 1.68704e-16 8.17498e-17 4.62509e-17 3.89661e-17 4.39585e-17 4.94419e-17 -8.17498e-17 -4.62509e-17 -3.89661e-17 -4.39585e-17 -4.94419e-17 -2.27658e-16 -1.36668e-16 -1.27224e-16 -1.49415e-16 -1.68704e-16 -3.205e-16 -2.25305e-16 -2.49097e-16 -3.05175e-16 -3.42761e-16 -3.34829e-16 -3.33588e-16 -4.32149e-16 -5.27589e-16 -5.78628e-16 -3.40866e-16 -5.00663e-16 -6.73794e-16 -7.80038e-16 -8.31883e-16 8.31883e-16 7.80038e-16 6.73794e-16 5.00663e-16 3.40866e-16 5.78628e-16 5.27589e-16 4.32149e-16 3.33588e-16 3.34829e-16 3.42761e-16 3.05175e-16 2.49097e-16 2.25305e-16 3.205e-16 1.68704e-16 1.49415e-16 1.27224e-16 1.36668e-16 2.27658e-16 4.94419e-17 4.39585e-17 3.89661e-17 4.62509e-17 8.17498e-17 -4.94419e-17 -4.39585e-17 -3.89661e-17 -4.62509e-17 -8.17498e-17 -1.68704e-16 -1.49415e-16 -1.27224e-16 -1.36668e-16 -2.27658e-16 -3.42761e-16 -3.05175e-16 -2.49097e-16 -2.25305e-16 -3.205e-16 -5.78628e-16 -5.27589e-16 -4.32149e-16 -3.33588e-16 -3.34829e-16 -8.31883e-16 -7.80038e-16 -6.73794e-16 -5.00663e-16 -3.40866e-16 
</DataArray>
<DataArray Name="Strain_12" format="ascii" type="Float64">
5.37611e-17 -1.41017e-16 -1.04437e-16 -5.43668e-17 -1.6101e-17 3.57927e-16 6.88162e-17 -3.33061e-17 -3.58685e-17 -1.33168e-17 6.88286e-16 4.6126e-16 2.66104e-16 1.32983e-16 4.02996e-17 8.9439e-16 7.56975e-16 5.35115e-16 3.08808e-16 1.00054e-16 9.90525e-16 9.03907e-16 6.77307e-16 4.0721e-16 1.34684e-16 9.90525e-16 9.03907e-16 6.77307e-16 4.0721e-16 1.34684e-16 8.9439e-16 7.56975e-16 5.35115e-16 3.08808e-16 1.00054e-16 6.88286e-16 4.6126e-16 2.66104e-16 1.32983e-16 4.02996e-17 3.57927e-16 6.88162e-17 -3.33061e-17 -3.58685e-17 -1.33168e-17 5.37611e-17 -1.41017e-16 -1.04437e-16 -5.43668e-17 -1.6101e-17 1.6101e-17 5.43668e-17 1.04437e-16 1.41017e-16 -5.37611e-17 1.33168e-17 3.58685e-17 3.33061e-17 -6.88162e-17 -3.57927e-16 -4.02996e-17 -1.32983e-16 -2.66104e-16 -4.6126e-16 -6.88286e-16 -1.00054e-16 -3.08808e-16 -5.35115e-16 -7.56975e-16 -8.9439e-16 -1.34684e-16 -4.0721e-16 -6.77307e-16 -9.03907e-16 -9.90525e-16 -1.34684e-16 -4.0721e-16 -6.77307e-16 -9.03907e-16 -9.90525e-16 -1.00054e-16 -3.08808e-16 -5.35115e-16 -7.56975e-16 -8.9439e-16 -4.02996e-17 -1.32983e-16 -2.66104e-16 -4.6126e-16 -6.88286e-16 1.33168e-17 3.58685e-17 3.33061e-17 -6.88162e-17 -3.57927e-16 1.6101e-17 5.43668e-17 1.04437e-16 1.41017e-16 -5.37611e-17 
</DataArray>
<DataArray Name="Strain_13" format="ascii" type="Float64">
-40.883 -16.4937 -1.64504 7.16642 11.3027 -36.238 -19.8453 -7.90567 -0.448258 3.12453 -26.8841 -16.8833 -8.89297 -3.54268 -0.901108 -16.4596 -10.9903 -6.50289 -3.38432 -1.80486 -5.5337 -3.79332 -2.34919 -1.33274 -0.812022 5.5337 3.79332 2.34919 1.33274 0.812022 16.4596 10.9903 6.50289 3.38432 1.80486 26.8841 16.8833 8.89297 3.54268 0.901108 36.238 19.8453 7.90567 0.448258 -3.12453 40.883 16.4937 1.64504 -7.16642 -11.3027 11.3027 7.16642 -1.64504 -16.4937 -40.883 3.12453 -0.448258 -7.90567 -19.8453 -36.238 -0.901108 -3.54268 -8.89297 -16.8833 -26.8841 -1.80486 -3.38432 -6.50289 -10.9903 -16.4596 -0.812022 -1.33274 -2.34919 -3.79332 -5.5337 0.812022 1.33274 2.34919 3.79332 5.5337 1.80486 3.38432 6.50289 10.9903 16.4596 0.901108 3.54268 8.89297 16.8833 26.8841 -3.12453 0.448258 7.90567 19.8453 36.238 -11.3027 -7.16642 1.64504 16.4937 40.883 
</DataArray>
<DataArray Name="Strain_23" format="ascii" type="Float64">
37.2461 33.7654 25.2734 15.5249 5.22707 8.73887 13.5532 12.4729 8.38609 2.93108 -7.98196 -0.440381 2.65451 2.6996 1.07457 -17.6979 -8.88198 -3.6538 -1.11046 -0.190815 -22.1982 -12.8512 -6.68872 -2.98679 -0.822022 -22.1982 -12.8512 -6.68872 -2.98679 -0.822022 -17.6979 -8.88198 -3.6538 -1.11046 -0.190815 -7.98196 -0.440381 2.65451 2.6996 1.07457 8.73887 13.5532 12.4729 8.38609 2.93108 37.2461 33.7654 25.2734 15.5249 5.22707 -5.22707 -15.5249 -25.2734 -33.7654 -37.2461 -2.93108 -8.38609 -12.4729 -13.5532 -8.73887 -1.07457 -2.6996 -2.65451 0.440381 7.98196 0.190815 1.11046 3.6538 8.88198 17.6979 0.822022 2.98679 6.68872 12.8512 22.1982 0.822022 2.98679 6.68872 12.8512 22.1982 0.190815 1.11046 3.6538 8.88198 17.6979 -1.07457 -2.6996 -2.65451 0.440381 7.98196 -2.93108 -8.38609 -12.4729 -13.5532 -8.73887 -5.22707 -15.5249 -25.2734 -33.7654 -37.2461 
</DataArray>
<DataArray Name="Strain_33" format="ascii" type="Float64">
0 0 0 0 0 0 0 0 0 0 0 0 0 0 0 0 0 0 0 0 0 0 0 0 0 0 0 0 0 0 0 0 0 0 0 0 0 0 0 0 0 0 0 0 0 0 0 0 0 0 0 0 0 0 0 0 0 0 0 0 0 0 0 0 0 0 0 0 0 0 0 0 0 0 0 0 0 0 0 0 0 0 0 0 0 0 0 0 0 0 0 0 0 0 0 0 0 0 0 0 
</DataArray>
<DataArray Name="Stress_11" format="ascii" type="Float64">
-1.19762e-12 -1.17889e-12 -1.15992e-12 -1.14721e-12 -1.14115e-12 -9.45243e-13 -9.56648e-13 -9.65943e-13 -9.70245e-13 -9.7172e-13 -6.74551e-13 -6.86984e-13 -7.0173e-13 -7.13042e-13 -7.18775e-13 -4.04748e-13 -4.12104e-13 -4.22039e-13 -4.3051e-13 -4.35201e-13 -1.34837e-13 -1.37257e-13 -1.40596e-13 -1.43544e-13 -1.45219e-13 1.34837e-13 1.37257e-13 1.40596e-13 1.43544e-13 1.45219e-13 4.04748e-13 4.12104e-13 4.22039e-13 4.3051e-13 4.35201e-13 6.74551e-13 6.86984e-13 7.0173e-13 7.13042e-13 7.18775e-13 9.45243e-13 9.56648e-13 9.65943e-13 9.70245e-13 9.7172e-13 1.19762e-12 1.17889e-12 1.15992e-12 1.14721e-12 1.14115e-12 -1.14115e-12 -1.14721e-12 -1.15992e-12 -1.17889e-12 -1.19762e-12 -9.7172e-13 -9.70245e-13 -9.65943e-13 -9.56648e-13 -9.45243e-13 -7.18775e-13 -7.13042e-13 -7.0173e-13 -6.86984e-13 -6.74551e-13 -4.35201e-13 -4.3051e-13 -4.22039e-13 -4.12104e-13 -4.04748e-13 -1.45219e-13 -1.43544e-13 -1.40596e-13 -1.37257e-13 -1.34837e-13 1.45219e-13 1.43544e-13 1.40596e-13 1.37257e-13 1.34837e-13 4.35201e-13 4.3051e-13 4.22039e-13 4.12104e-13 4.04748e-13 7.18775e-13 7.13042e-13 7.0173e-13 6.86984e-13 6.74551e-13 9.7172e-13 9.70245e-13 9.65943e-13 9.56648e-13 9.45243e-13 1.14115e-12 1.14721e-12 1.15992e-12 1.17889e-12 1.19762e-12 
</DataArray>
<DataArray Name="Stress_22" format="ascii" type="Float64">
3.14801e-14 1.47791e-14 1.48575e-14 1.54487e-14 1.59864e-14 3.95764e-14 1.28284e-14 6.08419e-15 6.32854e-15 7.1672e-15 4.03539e-14 1.153e-14 1.04224e-15 -9.05568e-16 -6.02912e-16 2.92809e-14 8.47157e-15 -4.59551e-16 -3.06622e-15 -3.37611e-15 1.05945e-14 3.1253e-15 -3.04403e-16 -1.45435e-15 -1.6775e-15 -1.05945e-14 -3.1253e-15 3.04403e-16 1.45435e-15 1.6775e-15 -2.92809e-14 -8.47157e-15 4.59551e-16 3.06622e-15 3.37611e-15 -4.03539e-14 -1.153e-14 -1.04224e-15 9.05568e-16 6.02912e-16 -3.95764e-14 -1.28284e-14 -6.08419e-15 -6.32854e-15 -7.1672e-15 -3.14801e-14 -1.47791e-14 -1.48575e-14 -1.54487e-14 -1.59864e-14 1.59864e-14 1.54487e-14 1.48575e-14 1.47791e-14 3.14801e-14 7.1672e-15 6.32854e-15 6.08419e-15 1.28284e-14 3.95764e-14 -6.02912e-16 -9.05568e-16 1.04224e-15 1.153e-14 4.03539e-14 -3.37611e-15 -3.06622e-15 -4.59551e-16 8.47157e-15 2.92809e-14 -1.6775e-15 -1.45435e-15 -3.04403e-16 3.1253e-15 1.05945e-14 1.6775e-15 1.45435e-15 3.04403e-16 -3.1253e-15 -1.05945e-14 3.37611e-15 3.06622e-15 4.59551e-16 -8.47157e-15 -2.92809e-14 6.02912e-16 9.05568e-16 -1.04224e-15 -1.153e-14 -4.03539e-14 -7.1672e-15 -6.32854e-15 -6.08419e-15 -1.28284e-14 -3.95764e-14 -1.59864e-14 -1.54487e-14 -1.48575e-14 -1.47791e-14 -3.14801e-14 
</DataArray>
<DataArray Name="Stress_12" format="ascii" type="Float64">
2.60323e-14 1.22143e-14 9.20928e-15 6.24424e-15 2.2346e-15 2.68266e-14 1.24279e-14 5.63909e-15 2.98289e-15 9.9576e-16 3.64096e-14 2.74059e-14 1.75916e-14 9.63203e-15 3.07596e-15 4.28266e-14 3.99799e-14 2.98696e-14 1.78485e-14 5.88643e-15 4.5839e-14 4.63653e-14 3.65427e-14 2.26037e-14 7.57772e-15 4.5839e-14 4.63653e-14 3.65427e-14 2.26037e-14 7.57772e-15 4.28266e-14 3.99799e-14 2.98696e-14 1.78485e-14 5.88643e-15 3.64096e-14 2.74059e-14 1.75916e-14 9.63203e-15 3.07596e-15 2.68266e-14 1.24279e-14 5.63909e-15 2.98289e-15 9.9576e-16 2.60323e-14 1.22143e-14 9.20928e-15 6.24424e-15 2.2346e-15 -2.2346e-15 -6.24424e-15 -9.20928e-15 -1.22143e-14 -2.60323e-14 -9.9576e-16 -2.98289e-15 -5.63909e-15 -1.24279e-14 -2.68266e-14 -3.07596e-15 -9.63203e-15 -1.75916e-14 -2.74059e-14 -3.64096e-14 -5.88643e-15 -1.78485e-14 -2.98696e-14 -3.99799e-14 -4.28266e-14 -7.57772e-15 -2.26037e-14 -3.65427e-14 -4.63653e-14 -4.5839e-14 -7.57772e-15 -2.26037e-14 -3.65427e-14 -4.63653e-14 -4.5839e-14 -5.88643e-15 -1.78485e-14 -2.98696e-14 -3.99799e-14 -4.28266e-14 -3.07596e-15 -9.63203e-15 -1.75916e-14 -2.74059e-14 -3.64096e-14 -9.9576e-16 -2.98289e-15 -5.63909e-15 -1.24279e-14 -2.68266e-14 -2.2346e-15 -6.24424e-15 -9.20928e-15 -1.22143e-14 -2.60323e-14 
</DataArray>
<DataArray Name="Stress_13" format="ascii" type="Float64">
-2452.98 -989.619 -98.7025 429.985 678.161 -2174.28 -1190.72 -474.34 -26.8955 187.472 -1613.04 -1013 -533.578 -212.561 -54.0665 -987.576 -659.418 -390.173 -203.059 -108.292 -332.022 -227.599 -140.951 -79.9646 -48.7213 332.022 227.599 140.951 79.9646 48.7213 987.576 659.418 390.173 203.059 108.292 1613.04 1013 533.578 212.561 54.0665 2174.28 1190.72 474.34 26.8955 -187.472 2452.98 989.619 98.7025 -429.985 -678.161 678.161 429.985 -98.7025 -989.619 -2452.98 187.472 -26.8955 -474.34 -1190.72 -2174.28 -54.0665 -212.561 -533.578 -1013 -1613.04 -108.292 -203.059 -390.173 -659.418 -987.576 -48.7213 -79.9646 -140.951 -227.599 -332.022 48.7213 79.9646 140.951 227.599 332.022 108.292 203.059 390.173 659.418 987.576 54.0665 212.561 533.578 1013 1613.04 -187.472 26.8955 474.34 1190.72 2174.28 -678.161 -429.985 98.7025 989.619 2452.98 
</DataArray>
<DataArray Name="Stress_23" format="ascii" type="Float64">
1862.31 1688.27 1263.67 776.244 261.353 436.944 677.658 623.646 419.305 146.554 -399.098 -22.019 132.725 134.98 53.7283 -884.893 -444.099 -182.69 -55.523 -9.54073 -1109.91 -642.561 -334.436 -149.339 -41.1011 -1109.91 -642.561 -334.436 -149.339 -41.1011 -884.893 -444.099 -182.69 -55.523 -9.54073 -399.098 -22.019 132.725 134.98 53.7283 436.944 677.658 623.646 419.305 146.554 1862.31 1688.27 1263.67 776.244 261.353 -261.353 -776.244 -1263.67 -1688.27 -1862.31 -146.554 -419.305 -623.646 -677.658 -436.944 -53.7283 -134.98 -132.725 22.019 399.098 9.54073 55.523 182.69 444.099 884.893 41.1011 149.339 334.436 642.561 1109.91 41.1011 149.339 334.436 642.561 1109.91 9.54073 55.523 182.69 444.099 884.893 -53.7283 -134.98 -132.725 22.019 399.098 -146.554 -419.305 -623.646 -677.658 -436.944 -261.353 -776.244 -1263.67 -1688.27 -1862.31 
</DataArray>
<DataArray Name="Stress_33" format="ascii" type="Float64">
-6.29714e-14 -5.79112e-14 -5.18076e-14 -4.79748e-14 -4.61031e-14 -4.72571e-14 -4.90319e-14 -4.70597e-14 -4.45977e-14 -4.32027e-14 -3.09324e-14 -3.55266e-14 -3.6165e-14 -3.53414e-14 -3.46131e-14 -1.73573e-14 -2.12082e-14 -2.2436e-14 -2.24276e-14 -2.21798e-14 -5.58157e-15 -7.03109e-15 -7.57737e-15 -7.66163e-15 -7.61747e-15 5.58157e-15 7.03109e-15 7.57737e-15 7.66163e-15 7.61747e-15 1.73573e-14 2.12082e-14 2.2436e-14 2.24276e-14 2.21798e-14 3.09324e-14 3.55266e-14 3.6165e-14 3.53414e-14 3.46131e-14 4.72571e-14 4.90319e-14 4.70597e-14 4.45977e-14 4.32027e-14 6.29714e-14 5.79112e-14 5.18076e-14 4.79748e-14 4.61031e-14 -4.61031e-14 -4.79748e-14 -5.18076e-14 -5.79112e-14 -6.29714e-14 -4.32027e-14 -4.45977e-14 -4.70597e-14 -4.90319e-14 -4.72571e-14 -3.46131e-14 -3.53414e-14 -3.6165e-14 -3.55266e-14 -3.09324e-14 -2.21798e-14 -2.24276e-14 -2.2436e-14 -2.12082e-14 -1.73573e-14 -7.61747e-15 -7.66163e-15 -7.57737e-15 -7.03109e-15 -5.58157e-15 7.61747e-15 7.66163e-15 7.57737e-15 7.03109e-15 5.58157e-15 2.21798e-14 2.24276e-14 2.2436e-14 2.12082e-14 1.73573e-14 3.46131e-14 3.53414e-14 3.6165e-14 3.55266e-14 3.09324e-14 4.32027e-14 4.45977e-14 4.70597e-14 4.90319e-14 4.72571e-14 4.61031e-14 4.79748e-14 5.18076e-14 5.79112e-14 6.29714e-14 
</DataArray>
</CellData>
<Points>
<DataArray NumberOfComponents="3" format="ascii" type="Float64">
-0.05 -0.05 0 -0.05 0 0 -0.05 -0.04 0 -0.05 -0.03 0 -0.05 -0.02 0 -0.05 -0.01 0 0 0 0 -0.04 0 0 -0.03 0 0 -0.02 0 0 -0.01 0 0 0 -0.05 0 0 -0.01 0 0 -0.02 0 0 -0.03 0 0 -0.04 0 -0.01 -0.05 0 -0.02 -0.05 0 -0.03 -0.05 0 -0.04 -0.05 0 -0.04 -0.04 0 -0.04 -0.03 0 -0.04 -0.02 0 -0.04 -0.01 0 -0.03 -0.04 0 -0.03 -0.03 0 -0.03 -0.02 0 -0.03 -0.01 0 -0.02 -0.04 0 -0.02 -0.03 0 -0.02 -0.02 0 -0.02 -0.01 0 -0.01 -0.04 0 -0.01 -0.03 0 -0.01 -0.02 0 -0.01 -0.01 0 -0.05 0.05 0 -0.05 0.01 0 -0.05 0.02 0 -0.05 0.03 0 -0.05 0.04 0 0 0.05 0 -0.04 0.05 0 -0.03 0.05 0 -0.02 0.05 0 -0.01 0.05 0 0 0.04 0 0 0.03 0 0 0.02 0 0 0.01 0 -0.04 0.01 0 -0.04 0.02 0 -0.04 0.03 0 -0.04 0.04 0 -0.03 0.01 0 -0.03 0.02 0 -0.03 0.03 0 -0.03 0.04 0 -0.02 0.01 0 -0.02 0.02 0 -0.02 0.03 0 -0.02 0.04 0 -0.01 0.01 0 -0.01 0.02 0 -0.01 0.03 0 -0.01 0.04 0 0.05 0 0 0.01 0 0 0.02 0 0 0.03 0 0 0.04 0 0 0.05 -0.05 0 0.05 -0.01 0 0.05 -0.02 0 0.05 -0.03 0 0.05 -0.04 0 0.04 -0.05 0 0.03 -0.05 0 0.02 -0.05 0 0.01 -0.05 0 0.01 -0.04 0 0.01 -0.03 0 0.01 -0.02 0 0.01 -0.01 0 0.02 -0.04 0 0.02 -0.03 0 0.02 -0.02 0 0.02 -0.01 0 0.03 -0.04 0 0.03 -0.03 0 0.03 -0.02 0 0.03 -0.01 0 0.04 -0.04 0 0.04 -0.03 0 0.04 -0.02 0 0.04 -0.01 0 0.05 0.05 0 0.01 0.05 0 0.02 0.05 0 0.03 0.05 0 0.04 0.05 0 0.05 0.04 0 0.05 0.03 0 0.05 0.02 0 0.05 0.01 0 0.01 0.01 0 0.01 0.02 0 0.01 0.03 0 0.01 0.04 0 0.02 0.01 0 0.02 0.02 0 0.02 0.03 0 0.02 0.04 0 0.03 0.01 0 0.03 0.02 0 0.03 0.03 0 0.03 0.04 0 0.04 0.01 0 0.04 0.02 0 0.04 0.03 0 0.04 0.04 0 
</DataArray>
</Points>
<Cells>
<DataArray Name="connectivity" format="ascii" type="Int64">
0 19 20 2 19 18 24 20 18 17 28 24 17 16 32 28 16 11 15 32 2 20 21 3 20 24 25 21 24 28 29 25 28 32 33 29 32 15 14 33 3 21 22 4 21 25 26 22 25 29 30 26 29 33 34 30 33 14 13 34 4 22 23 5 22 26 27 23 26 30 31 27 30 34 35 31 34 13 12 35 5 23 7 1 23 27 8 7 27 31 9 8 31 35 10 9 35 12 6 10 1 7 50 37 7 8 54 50 8 9 58 54 9 10 62 58 10 6 49 62 37 50 51 38 50 54 55 51 54 58 59 55 58 62 63 59 62 49 48 63 38 51 52 39 51 55 56 52 55 59 60 56 59 63 64 60 63 48 47 64 39 52 53 40 52 56 57 53 56 60 61 57 60 64 65 61 64 47 46 65 40 53 42 36 53 57 43 42 57 61 44 43 61 65 45 44 65 46 41 45 11 79 80 15 79 78 84 80 78 77 88 84 77 76 92 88 76 71 75 92 15 80 81 14 80 84 85 81 84 88 89 85 88 92 93 89 92 75 74 93 14 81 82 13 81 85 86 82 85 89 90 86 89 93 94 90 93 74 73 94 13 82 83 12 82 86 87 83 86 90 91 87 90 94 95 91 94 73 72 95 12 83 67 6 83 87 68 67 87 91 69 68 91 95 70 69 95 72 66 70 6 67 105 49 67 68 109 105 68 69 113 109 69 70 117 113 70 66 104 117 49 105 106 48 105 109 110 106 109 113 114 110 113 117 118 114 117 104 103 118 48 106 107 47 106 110 111 107 110 114 115 111 114 118 119 115 118 103 102 119 47 107 108 46 107 111 112 108 111 115 116 112 115 119 120 116 119 102 101 120 46 108 97 41 108 112 98 97 112 116 99 98 116 120 100 99 120 101 96 100 
</DataArray>
<DataArray Name="offsets" format="ascii" type="Int64">
4 8 12 16 20 24 28 32 36 40 44 48 52 56 60 64 68 72 76 80 84 88 92 96 100 104 108 112 116 120 124 128 132 136 140 144 148 152 156 160 164 168 172 176 180 184 188 192 196 200 204 208 212 216 220 224 228 232 236 240 244 248 252 256 260 264 268 272 276 280 284 288 292 296 300 304 308 312 316 320 324 328 332 336 340 344 348 352 356 360 364 368 372 376 380 384 388 392 396 400 
</DataArray>
<DataArray Name="types" format="ascii" type="Int8">
9 9 9 9 9 9 9 9 9 9 9 9 9 9 9 9 9 9 9 9 9 9 9 9 9 9 9 9 9 9 9 9 9 9 9 9 9 9 9 9 9 9 9 9 9 9 9 9 9 9 9 9 9 9 9 9 9 9 9 9 9 9 9 9 9 9 9 9 9 9 9 9 9 9 9 9 9 9 9 9 9 9 9 9 9 9 9 9 9 9 9 9 9 9 9 9 9 9 9 9 
</DataArray>
</Cells>
</Piece>
</UnstructuredGrid>
</VTKFile>
