<?xml version="1.0"?>
<VTKFile byte_order="LittleEndian" type="UnstructuredGrid" version="0.1">
<UnstructuredGrid>
<Piece NumberOfCells="2320" NumberOfPoints="2414">
<PointData>
<DataArray Name="Warping_X" format="ascii" type="Float64">
-3.13476e-11 -1.93552e-11 -1.52759e-11 -1.3433e-11 -1.31769e-11 -1.42988e-11 -1.64164e-11 -1.9702e-11 -2.29541e-11 -2.69587e-11 -3.1044e-11 -3.5044e-11 -3.88115e-11 -4.21833e-11 -4.49801e-11 -4.70282e-11 -4.81745e-11 -4.82914e-11 -4.72816e-11 -4.50757e-11 -4.16316e-11 -3.694e-11 -3.10132e-11 -2.38796e-11 -1.5589e-11 -6.20618e-12 4.18761e-12 1.54916e-11 2.76361e-11 4.05679e-11 4.88321e-11 5.90042e-11 6.50123e-11 7.28635e-11 8.04796e-11 8.77719e-11 9.46459e-11 1.00998e-10 1.06728e-10 1.12846e-10 1.15826e-10 1.19132e-10 1.24788e-10 1.29442e-10 1.31832e-10 1.31306e-10 1.26911e-10 1.17154e-10 9.94199e-11 8.52568e-11 6.37944e-11 4.72078e-11 4.32201e-12 -4.49837e-11 -6.28936e-11 -8.60152e-11 -1.01696e-10 -1.21985e-10 -1.33349e-10 -1.38734e-10 -1.3974e-10 -1.37458e-10 -1.33357e-10 -1.31007e-10 -1.28547e-10 -1.23056e-10 -1.17685e-10 -1.11647e-10 -1.05079e-10 -9.81052e-11 -9.0838e-11 -8.33586e-11 -7.76784e-11 -6.80139e-11 -6.02208e-11 -4.76932e-11 -3.56589e-11 -2.41473e-11 -1.31902e-11 -2.8472e-12 6.83536e-12 1.58229e-11 2.40879e-11 3.16094e-11 3.83721e-11 4.43642e-11 4.95786e-11 5.4012e-11 5.76655e-11 6.05416e-11 6.26429e-11 6.39724e-11 6.45355e-11 6.43459e-11 6.34111e-11 6.17396e-11 5.93404e-11 5.67119e-11 5.28491e-11 4.84641e-11 4.2774e-11 3.66998e-11 3.00817e-11 2.28834e-11 1.09351e-11 1.13938e-13 1.83252e-11 3.65419e-11 5.31771e-11 4.71506e-11 4.02483e-11 3.29992e-11 2.55534e-11 1.79674e-11 1.02744e-11 2.48639e-12 -5.39361e-12 -1.33648e-11 -2.14265e-11 -2.95756e-11 -3.78003e-11 -4.60681e-11 -5.43215e-11 -6.24092e-11 -6.98243e-11 1.03307e-10 9.23076e-11 7.9934e-11 6.69021e-11 5.33731e-11 3.94594e-11 2.52591e-11 1.08427e-11 -3.72838e-12 -1.83943e-11 -3.30953e-11 -4.77698e-11 -6.23475e-11 -7.67314e-11 -9.08073e-11 -1.04406e-10 -1.16846e-10 -2.3435e-11 -1.00137e-11 -6.01715e-12 -4.37832e-12 1.16009e-13 -3.10211e-12 -5.78346e-12 -8.77718e-12 -1.34218e-11 -1.79174e-11 -2.25174e-11 -2.70291e-11 -3.12902e-11 -3.51432e-11 -3.84105e-11 -4.09227e-11 -4.25336e-11 -4.31232e-11 -4.26014e-11 -4.09056e-11 -3.79993e-11 -3.3877e-11 -2.8554e-11 -2.20616e-11 -1.44514e-11 -5.78815e-12 3.86258e-12 1.43918e-11 2.56293e-11 3.89495e-11 4.70334e-11 5.43206e-11 6.30077e-11 7.06678e-11 7.80792e-11 8.5169e-11 9.18412e-11 9.79976e-11 1.0353e-10 1.08212e-10 1.12482e-10 1.15709e-10 1.20656e-10 1.2492e-10 1.27091e-10 1.26368e-10 1.21914e-10 1.12308e-10 9.50372e-11 8.14673e-11 6.08041e-11 4.51535e-11 4.14996e-12 -4.31475e-11 -6.00932e-11 -8.23904e-11 -9.74566e-11 -1.17207e-10 -1.28367e-10 -1.33808e-10 -1.34973e-10 -1.33059e-10 -1.29733e-10 -1.27472e-10 -1.23816e-10 -1.19676e-10 -1.14508e-10 -1.08669e-10 -1.02297e-10 -9.55156e-11 -8.84373e-11 -8.11304e-11 -7.27158e-11 -6.59474e-11 -5.83027e-11 -4.49126e-11 -3.37222e-11 -2.29548e-11 -1.27188e-11 -3.09051e-12 5.8984e-12 1.42138e-11 2.18258e-11 2.87126e-11 3.48581e-11 4.02499e-11 4.48803e-11 4.87455e-11 5.18461e-11 5.41838e-11 5.5761e-11 5.65804e-11 5.66475e-11 5.59767e-11 5.45691e-11 5.24363e-11 4.9622e-11 4.55296e-11 4.2264e-11 3.73522e-11 2.97561e-11 2.78571e-11 2.10358e-11 1.36375e-11 4.96529e-12 1.20901e-13 1.85149e-11 3.69494e-11 4.98314e-11 4.40847e-11 3.76419e-11 3.08076e-11 2.37601e-11 1.65775e-11 9.2879e-12 1.90231e-12 -5.57537e-12 -1.31443e-11 -2.08039e-11 -2.85503e-11 -3.63726e-11 -4.42435e-11 -5.20886e-11 -5.97277e-11 -6.68563e-11 9.98358e-11 8.90615e-11 7.7204e-11 6.45755e-11 5.14347e-11 3.79226e-11 2.41236e-11 1.01082e-11 -4.06061e-12 -1.83233e-11 -3.26202e-11 -4.68886e-11 -6.1058e-11 -7.50442e-11 -8.87118e-11 -1.01798e-10 -1.1398e-10 -2.89715e-11 -1.65266e-11 -1.24826e-11 -1.06891e-11 -8.8405e-12 -1.04596e-11 -1.28078e-11 -1.6039e-11 -1.97008e-11 -2.38613e-11 -2.81238e-11 -3.22958e-11 -3.62273e-11 -3.97592e-11 -4.27128e-11 -4.49154e-11 -4.62166e-11 -4.64912e-11 -4.56447e-11 -4.36099e-11 -4.03467e-11 -3.58471e-11 -3.01243e-11 -2.32079e-11 -1.51492e-11 -6.01223e-12 4.13257e-12 1.51658e-11 2.69433e-11 3.99907e-11 4.818e-11 5.74454e-11 6.4287e-11 7.20652e-11 7.96073e-11 8.68254e-11 9.36261e-11 9.9905e-11 1.0557e-10 1.11225e-10 1.14613e-10 1.17883e-10 1.23583e-10 1.28054e-10 1.30391e-10 1.29805e-10 1.25394e-10 1.15688e-10 9.81052e-11 8.41212e-11 6.29044e-11 4.65637e-11 4.26904e-12 -4.44076e-11 -6.2061e-11 -8.49297e-11 -1.00426e-10 -1.2054e-10 -1.31837e-10 -1.37237e-10 -1.38277e-10 -1.36166e-10 -1.32032e-10 -1.29726e-10 -1.26873e-10 -1.21834e-10 -1.16527e-10 -1.10564e-10 -1.04067e-10 -9.7164e-11 -8.99646e-11 -8.2553e-11 -7.6007e-11 -6.72661e-11 -5.95311e-11 -4.67305e-11 -3.50355e-11 -2.37829e-11 -1.30674e-11 -2.96853e-12 6.47719e-12 1.52362e-11 2.32793e-11 3.05853e-11 3.71386e-11 4.29272e-11 4.79438e-11 5.21849e-11 5.56514e-11 5.83454e-11 6.02696e-11 6.14267e-11 6.18224e-11 6.14708e-11 6.03765e-11 5.85427e-11 5.60081e-11 5.29563e-11 4.92521e-11 4.46294e-11 3.85185e-11 3.40133e-11 2.73452e-11 2.00816e-11 9.13662e-12 1.20237e-13 1.83833e-11 3.66603e-11 5.21445e-11 4.62167e-11 3.94481e-11 3.23264e-11 2.50035e-11 1.7541e-11 9.97152e-12 2.30679e-12 -5.45e-12 -1.3298e-11 -2.12365e-11 -2.92622e-11 -3.73635e-11 -4.55085e-11 -5.36361e-11 -6.159e-11 -6.88974e-11 1.02238e-10 9.13274e-11 7.90964e-11 6.61893e-11 5.27805e-11 3.89891e-11 2.49113e-11 1.06174e-11 -3.83082e-12 -1.83736e-11 -3.29511e-11 -4.75016e-11 -6.19547e-11 -7.62152e-11 -9.01651e-11 -1.03618e-10 -1.1595e-10 -2.09027e-11 -6.95444e-12 -2.97732e-12 -1.43108e-12 5.0823e-12 1.13025e-12 -1.7893e-12 -4.58941e-12 -9.84129e-12 -1.45522e-11 -1.93438e-11 -2.40464e-11 -2.84987e-11 -3.25364e-11 -3.59837e-11 -3.86734e-11 -4.04619e-11 -4.12317e-11 -4.08957e-11 -3.93937e-11 -3.66912e-11 -3.2784e-11 -2.76893e-11 -2.14389e-11 -1.40831e-11 -5.68871e-12 3.66972e-12 1.39126e-11 2.4961e-11 3.83526e-11 4.63762e-11 5.25374e-11 6.22768e-11 6.98677e-11 7.72053e-11 8.42224e-11 9.08214e-11 9.69086e-11 1.02365e-10 1.06496e-10 1.11266e-10 1.14478e-10 1.19278e-10 1.23593e-10 1.25655e-10 1.24878e-10 1.20408e-10 1.10847e-10 9.37073e-11 8.03156e-11 5.98894e-11 4.44914e-11 4.09462e-12 -4.25559e-11 -5.92359e-11 -8.12877e-11 -9.61683e-11 -1.15767e-10 -1.26863e-10 -1.32318e-10 -1.33572e-10 -1.31612e-10 -1.2843e-10 -1.26186e-10 -1.22075e-10 -1.18445e-10 -1.13356e-10 -1.07586e-10 -1.01286e-10 -9.45731e-11 -8.75633e-11 -8.03183e-11 -7.08379e-11 -6.51927e-11 -5.75994e-11 -4.39545e-11 -3.29487e-11 -2.24523e-11 -1.25007e-11 -3.14004e-12 5.58964e-12 1.36519e-11 2.10179e-11 2.76657e-11 3.35786e-11 3.8744e-11 4.31541e-11 4.68049e-11 4.96968e-11 5.18312e-11 5.32104e-11 5.38372e-11 5.37169e-11 5.28623e-11 5.12788e-11 4.89829e-11 4.5993e-11 4.12664e-11 3.82821e-11 3.32566e-11 2.49095e-11 2.49943e-11 1.80967e-11 1.06594e-11 3.05477e-12 1.0918e-13 1.8592e-11 3.71243e-11 4.85191e-11 4.28854e-11 3.6617e-11 2.99436e-11 2.30527e-11 1.60295e-11 8.89945e-12 1.67321e-12 -5.64508e-12 -1.30547e-11 -2.0555e-11 -2.81421e-11 -3.58057e-11 -4.35208e-11 -5.12056e-11 -5.86817e-11 -6.57064e-11 9.8459e-11 8.77822e-11 7.61244e-11 6.36519e-11 5.06652e-11 3.73127e-11 2.36737e-11 9.81828e-12 -4.19006e-12 -1.82918e-11 -3.24276e-11 -4.65341e-11 -6.05415e-11 -7.43705e-11 -8.78759e-11 -1.00772e-10 -1.12862e-10 -2.57984e-11 -1.28049e-11 -8.79712e-12 -7.07908e-12 -3.72675e-12 -6.25331e-12 -8.7905e-12 -1.19002e-11 -1.61104e-11 -2.0456e-11 -2.4912e-11 -2.92788e-11 -3.3398e-11 -3.7113e-11 -4.02456e-11 -4.26249e-11 -4.4103e-11 -4.45575e-11 -4.38966e-11 -4.20554e-11 -3.89962e-11 -3.47122e-11 -2.9218e-11 -2.2544e-11 -1.4742e-11 -5.87631e-12 3.98961e-12 1.47312e-11 2.61736e-11 3.9396e-11 4.75255e-11 5.56588e-11 6.35562e-11 7.1267e-11 7.87343e-11 8.5879e-11 9.26061e-11 9.88149e-11 1.04404e-10 1.09502e-10 1.13395e-10 1.16639e-10 1.21949e-10 1.26246e-10 1.28501e-10 1.27836e-10 1.234e-10 1.1375e-10 9.63475e-11 8.26011e-11 6.17028e-11 4.5757e-11 4.20103e-12 -4.36864e-11 -6.09352e-11 -8.34755e-11 -9.87251e-11 -1.18629e-10 -1.29849e-10 -1.35272e-10 -1.36373e-10 -1.34425e-10 -1.30717e-10 -1.28437e-10 -1.25124e-10 -1.206e-10 -1.15373e-10 -1.09481e-10 -1.03056e-10 -9.62222e-11 -8.90921e-11 -8.17402e-11 -7.41251e-11 -6.65131e-11 -5.88292e-11 -4.56726e-11 -3.42896e-11 -2.33183e-11 -1.28734e-11 -3.04378e-12 6.1404e-12 1.46458e-11 2.24424e-11 2.95088e-11 3.58289e-11 4.13907e-11 4.61865e-11 5.02127e-11 5.347e-11 5.59604e-11 5.76862e-11 5.86502e-11 5.8858e-11 5.83244e-11 5.70504e-11 5.50432e-11 5.23525e-11 4.87198e-11 4.52575e-11 4.04428e-11 3.35134e-11 3.04896e-11 2.37406e-11 1.63879e-11 6.74547e-12 1.23162e-13 1.84581e-11 3.6823e-11 5.08199e-11 4.49953e-11 3.84138e-11 3.14573e-11 2.42922e-11 1.69898e-11 9.58028e-12 2.0751e-12 -5.52216e-12 -1.32107e-11 -2.09897e-11 -2.88558e-11 -3.67975e-11 -4.47855e-11 -5.27512e-11 -6.0523e-11 -6.77261e-11 1.00865e-10 9.00317e-11 7.8014e-11 6.52672e-11 5.20118e-11 3.83797e-11 2.44611e-11 1.03262e-11 -3.96265e-12 -1.83456e-11 -3.2763e-11 -4.71524e-11 -6.14435e-11 -7.5547e-11 -8.93356e-11 -1.02577e-10 -1.1482e-10 -3.07519e-11 -1.86492e-11 -1.45717e-11 -1.27468e-11 -1.2507e-11 -1.36545e-11 -1.58188e-11 -1.90935e-11 -2.23997e-11 -2.64325e-11 -3.05461e-11 -3.45719e-11 -3.83637e-11 -4.1759e-11 -4.45785e-11 -4.66489e-11 -4.78177e-11 -4.79577e-11 -4.69722e-11 -4.47921e-11 -4.13758e-11 -3.67142e-11 -3.082e-11 -2.37217e-11 -1.54694e-11 -6.12827e-12 4.22069e-12 1.5475e-11 2.75539e-11 4.04379e-11 4.86672e-11 5.86719e-11 6.48322e-11 7.26637e-11 8.02616e-11 8.75352e-11 9.43912e-11 1.00724e-10 1.06441e-10 1.12466e-10 1.15529e-10 1.18803e-10 1.24386e-10 1.29005e-10 1.3137e-10 1.30827e-10 1.2643e-10 1.16693e-10 9.90153e-11 8.49082e-11 6.35253e-11 4.70288e-11 4.30725e-12 -4.48247e-11 -6.26426e-11 -8.56827e-11 -1.01306e-10 -1.21532e-10 -1.32869e-10 -1.38255e-10 -1.39277e-10 -1.37029e-10 -1.33006e-10 -1.30694e-10 -1.28148e-10 -1.22754e-10 -1.17394e-10 -1.11377e-10 -1.04826e-10 -9.787e-11 -9.06193e-11 -8.31589e-11 -7.73134e-11 -6.78262e-11 -6.00595e-11 -4.75591e-11 -3.55831e-11 -2.41174e-11 -1.32035e-11 -2.90217e-12 6.74054e-12 1.56899e-11 2.39181e-11 3.14041e-11 3.81325e-11 4.40915e-11 4.92738e-11 5.36762e-11 5.72998e-11 6.01467e-11 6.22198e-11 6.35219e-11 6.40585e-11 6.38433e-11 6.28835e-11 6.11868e-11 5.8764e-11 5.6088e-11 5.22452e-11 4.78177e-11 4.21043e-11 3.60175e-11 2.93853e-11 2.2175e-11 1.0484e-11 1.15205e-13 1.83356e-11 3.65617e-11 5.29931e-11 4.69892e-11 4.01081e-11 3.28808e-11 2.54567e-11 1.78923e-11 1.0221e-11 2.45476e-12 -5.40353e-12 -1.3353e-11 -2.1393e-11 -2.95203e-11 -3.77233e-11 -4.59693e-11 -5.42007e-11 -6.22663e-11 -6.96564e-11 1.03116e-10 9.21398e-11 7.97867e-11 6.67764e-11 5.32688e-11 3.93765e-11 2.51978e-11 1.0803e-11 -3.74641e-12 -1.83906e-11 -3.30698e-11 -4.77225e-11 -6.22782e-11 -7.664e-11 -9.06935e-11 -1.0427e-10 -1.16683e-10 -2.26503e-11 -9.08335e-12 -5.08685e-12 -3.48017e-12 1.40029e-12 -2.05295e-12 -4.78192e-12 -7.73281e-12 -1.25263e-11 -1.7074e-11 -2.17219e-11 -2.62816e-11 -3.05903e-11 -3.44894e-11 -3.78017e-11 -4.03582e-11 -4.20135e-11 -4.26481e-11 -4.21728e-11 -4.05254e-11 -3.767e-11 -3.36015e-11 -2.83356e-11 -2.19038e-11 -1.43573e-11 -5.76134e-12 3.81664e-12 1.42755e-11 2.54552e-11 3.88005e-11 4.68692e-11 5.38747e-11 6.28249e-11 7.04679e-11 7.78608e-11 8.49324e-11 9.15863e-11 9.77252e-11 1.03239e-10 1.07783e-10 1.12178e-10 1.15399e-10 1.20213e-10 1.24483e-10 1.26622e-10 1.25881e-10 1.21422e-10 1.1183e-10 9.4602e-11 8.10905e-11 6.0505e-11 4.49527e-11 4.13293e-12 -4.29682e-11 -5.9813e-11 -8.20297e-11 -9.70351e-11 -1.16736e-10 -1.27875e-10 -1.33321e-10 -1.34513e-10 -1.32592e-10 -1.29405e-10 -1.27151e-10 -1.2338e-10 -1.19368e-10 -1.1422e-10 -1.08398e-10 -1.02045e-10 -9.528e-11 -8.82189e-11 -8.09273e-11 -7.22462e-11 -6.57588e-11 -5.8127e-11 -4.46665e-11 -3.35311e-11 -2.28309e-11 -1.26655e-11 -3.10426e-12 5.81973e-12 1.40718e-11 2.16223e-11 2.84493e-11 3.45366e-11 3.98718e-11 4.44471e-11 4.82587e-11 5.13071e-11 5.35939e-11 5.51216e-11 5.58928e-11 5.59131e-11 5.51964e-11 5.37446e-11 5.15705e-11 4.87137e-11 4.44644e-11 4.12661e-11 3.63324e-11 2.85001e-11 2.69825e-11 2.01333e-11 1.27249e-11 4.37407e-12 1.19106e-13 1.85339e-11 3.69923e-11 4.95028e-11 4.37829e-11 3.73852e-11 3.05914e-11 2.35831e-11 1.64404e-11 9.19064e-12 1.84489e-12 -5.59293e-12 -1.31221e-11 -2.07418e-11 -2.84483e-11 -3.62309e-11 -4.40629e-11 -5.18679e-11 -5.94644e-11 -6.65678e-11 9.94924e-11 8.87396e-11 7.69342e-11 6.43448e-11 5.12423e-11 3.77701e-11 2.40111e-11 1.00357e-11 -4.0931e-12 -1.83156e-11 -3.25723e-11 -4.68002e-11 -6.09291e-11 -7.48761e-11 -8.85034e-11 -1.0154e-10 -1.137e-10 -2.81758e-11 -1.55961e-11 -1.15634e-11 -9.78587e-12 -7.56233e-12 -9.40768e-12 -1.18025e-11 -1.50072e-11 -1.88026e-11 -2.30076e-11 -2.73189e-11 -3.15397e-11 -3.55179e-11 -3.90955e-11 -4.20938e-11 -4.43405e-11 -4.56859e-11 -4.60055e-11 -4.52054e-11 -4.32189e-11 -4.00067e-11 -3.55611e-11 -2.98954e-11 -2.30397e-11 -1.50453e-11 -5.97626e-12 4.09966e-12 1.50592e-11 2.67464e-11 3.98421e-11 4.80166e-11 5.69984e-11 6.41044e-11 7.18657e-11 7.93891e-11 8.65889e-11 9.33711e-11 9.96324e-11 1.05279e-10 1.10793e-10 1.14308e-10 1.17572e-10 1.23185e-10 1.27598e-10 1.29918e-10 1.29312e-10 1.24894e-10 1.15201e-10 9.76646e-11 8.37403e-11 6.26036e-11 4.63617e-11 4.25204e-12 -4.4227e-11 -6.17792e-11 -8.45654e-11 -9.99994e-11 -1.2006e-10 -1.31339e-10 -1.36744e-10 -1.37797e-10 -1.3574e-10 -1.31703e-10 -1.29404e-10 -1.26436e-10 -1.21525e-10 -1.16239e-10 -1.10293e-10 -1.03815e-10 -9.69286e-11 -8.97466e-11 -8.23498e-11 -7.55361e-11 -6.7078e-11 -5.93556e-11 -4.64613e-11 -3.48503e-11 -2.36689e-11 -1.30202e-11 -2.98874e-12 6.39146e-12 1.5087e-11 2.30685e-11 3.03146e-11 3.68096e-11 4.25414e-11 4.75028e-11 5.16901e-11 5.51043e-11 5.77474e-11 5.9622e-11 6.07308e-11 6.10794e-11 6.06824e-11 5.95431e-11 5.76651e-11 5.50926e-11 5.18993e-11 4.82536e-11 4.35753e-11 3.72671e-11 3.3131e-11 2.64442e-11 1.91554e-11 8.53683e-12 1.21541e-13 1.84019e-11 3.67004e-11 5.18127e-11 4.59111e-11 3.91889e-11 3.21088e-11 2.48255e-11 1.7403e-11 9.87356e-12 2.24873e-12 -5.46817e-12 -1.32763e-11 -2.11749e-11 -2.91607e-11 -3.72221e-11 -4.53277e-11 -5.34147e-11 -6.1323e-11 -6.86032e-11 1.01895e-10 9.1004e-11 7.88254e-11 6.59587e-11 5.25884e-11 3.88367e-11 2.47987e-11 1.05445e-11 -3.86391e-12 -1.83668e-11 -3.29043e-11 -4.74146e-11 -6.18272e-11 -7.60483e-11 -8.99578e-11 -1.03358e-10 -1.15666e-10 -2.03228e-11 -6.23848e-12 -2.26903e-12 -7.44856e-13 5.75161e-12 1.76961e-12 -1.19349e-12 -3.94319e-12 -9.29468e-12 -1.40387e-11 -1.8858e-11 -2.35873e-11 -2.8065e-11 -3.21268e-11 -3.55972e-11 -3.83095e-11 -4.01205e-11 -4.09133e-11 -4.06014e-11 -3.91249e-11 -3.64498e-11 -3.25722e-11 -2.75095e-11 -2.12939e-11 -1.39757e-11 -5.62194e-12 3.69147e-12 1.38834e-11 2.48776e-11 3.82355e-11 4.62118e-11 5.20418e-11 6.21055e-11 6.96645e-11 7.69876e-11 8.39851e-11 9.05677e-11 9.66318e-11 1.02091e-10 1.05996e-10 1.10988e-10 1.14135e-10 1.18878e-10 1.23165e-10 1.25199e-10 1.24406e-10 1.19934e-10 1.10395e-10 9.33108e-11 7.99738e-11 5.96256e-11 4.43162e-11 4.07994e-12 -4.24006e-11 -5.89901e-11 -8.0962e-11 -9.57857e-11 -1.15322e-10 -1.2639e-10 -1.31844e-10 -1.33119e-10 -1.31187e-10 -1.28067e-10 -1.2589e-10 -1.21571e-10 -1.18154e-10 -1.13063e-10 -1.07316e-10 -1.01033e-10 -9.43384e-11 -8.73414e-11 -8.01273e-11 -7.03175e-11 -6.50055e-11 -5.7451e-11 -4.38228e-11 -3.28633e-11 -2.2414e-11 -1.25062e-11 -3.18649e-12 5.5038e-12 1.35281e-11 2.08577e-11 2.74703e-11 3.33492e-11 3.84817e-11 4.28599e-11 4.64799e-11 4.93419e-11 5.14474e-11 5.27985e-11 5.33981e-11 5.32514e-11 5.23712e-11 5.07626e-11 4.84431e-11 4.54286e-11 4.06052e-11 3.76855e-11 3.2617e-11 2.42571e-11 2.43254e-11 1.74071e-11 9.96258e-12 2.61741e-12 1.10024e-13 1.86131e-11 3.71658e-11 4.81506e-11 4.25685e-11 3.63397e-11 2.97096e-11 2.28618e-11 1.58818e-11 8.79517e-12 1.61231e-12 -5.66258e-12 -1.30288e-11 -2.04857e-11 -2.80294e-11 -3.56496e-11 -4.33214e-11 -5.09621e-11 -5.83971e-11 -6.53673e-11 9.80716e-11 8.74505e-11 7.58309e-11 6.34015e-11 5.04576e-11 3.71484e-11 2.35528e-11 9.74086e-12 -4.22381e-12 -1.82818e-11 -3.23737e-11 -4.64362e-11 -6.03995e-11 -7.41843e-11 -8.76445e-11 -1.00499e-10 -1.12531e-10 -2.50091e-11 -1.18745e-11 -7.87211e-12 -6.17799e-12 -2.44706e-12 -5.20244e-12 -7.78766e-12 -1.08609e-11 -1.52138e-11 -1.96084e-11 -2.41124e-11 -2.85277e-11 -3.2694e-11 -3.6455e-11 -3.96325e-11 -4.2056e-11 -4.35784e-11 -4.40779e-11 -4.34633e-11 -4.16706e-11 -3.86624e-11 -3.44323e-11 -2.89952e-11 -2.23817e-11 -1.46438e-11 -5.84563e-12 3.94913e-12 1.46195e-11 2.59888e-11 3.92472e-11 4.73616e-11 5.52126e-11 6.33733e-11 7.10673e-11 7.85159e-11 8.56423e-11 9.23511e-11 9.85424e-11 1.04113e-10 1.09071e-10 1.1309e-10 1.16329e-10 1.21524e-10 1.25801e-10 1.28031e-10 1.27346e-10 1.22903e-10 1.13268e-10 9.591e-11 8.22226e-11 6.1403e-11 4.55557e-11 4.18401e-12 -4.35065e-11 -6.06543e-11 -8.31133e-11 -9.83016e-11 -1.18154e-10 -1.29354e-10 -1.34783e-10 -1.35904e-10 -1.33975e-10 -1.30389e-10 -1.28115e-10 -1.24688e-10 -1.20292e-10 -1.15085e-10 -1.0921e-10 -1.02803e-10 -9.59866e-11 -8.88739e-11 -8.15369e-11 -7.36552e-11 -6.63246e-11 -5.86537e-11 -4.54159e-11 -3.41012e-11 -2.31985e-11 -1.28227e-11 -3.06027e-12 6.05873e-12 1.45008e-11 2.22358e-11 2.92423e-11 3.55042e-11 4.10093e-11 4.575e-11 4.97225e-11 5.29276e-11 5.5367e-11 5.70433e-11 5.7959e-11 5.812e-11 5.75407e-11 5.6222e-11 5.41726e-11 5.14413e-11 4.76575e-11 4.42594e-11 3.94078e-11 3.22619e-11 2.96109e-11 2.28393e-11 1.54691e-11 6.15091e-12 1.22879e-13 1.8477e-11 3.68647e-11 5.049e-11 4.4691e-11 3.81561e-11 3.12406e-11 2.41147e-11 1.68523e-11 9.48272e-12 2.01741e-12 -5.53999e-12 -1.31887e-11 -2.09279e-11 -2.8754e-11 -3.66559e-11 -4.46048e-11 -5.25303e-11 -6.02571e-11 -6.74354e-11 1.00522e-10 8.97078e-11 7.77439e-11 6.50367e-11 5.18194e-11 3.82273e-11 2.43486e-11 1.02535e-11 -3.99539e-12 -1.83383e-11 -3.27155e-11 -4.70647e-11 -6.13152e-11 -7.53796e-11 -8.91279e-11 -1.02317e-10 -1.1454e-10 -3.026e-11 -1.80535e-11 -1.39854e-11 -1.2172e-11 -1.13942e-11 -1.25645e-11 -1.482e-11 -1.80969e-11 -2.14983e-11 -2.5574e-11 -2.97373e-11 -3.38119e-11 -3.76502e-11 -4.10909e-11 -4.39551e-11 -4.60696e-11 -4.72825e-11 -4.74673e-11 -4.65281e-11 -4.43965e-11 -4.10312e-11 -3.64236e-11 -3.05866e-11 -2.35489e-11 -1.53613e-11 -6.08823e-12 4.193e-12 1.5374e-11 2.7347e-11 4.0288e-11 4.85065e-11 5.83402e-11 6.46519e-11 7.24639e-11 8.00437e-11 8.72986e-11 9.41364e-11 1.0045e-10 1.06154e-10 1.12088e-10 1.15223e-10 1.18505e-10 1.2436e-10 1.28976e-10 1.31339e-10 1.30795e-10 1.26398e-10 1.16663e-10 9.89885e-11 8.48848e-11 6.35069e-11 4.6968e-11 4.30301e-12 -4.47694e-11 -6.26252e-11 -8.56601e-11 -1.0128e-10 -1.21502e-10 -1.32837e-10 -1.38223e-10 -1.39247e-10 -1.37001e-10 -1.3269e-10 -1.30371e-10 -1.2775e-10 -1.22451e-10 -1.17104e-10 -1.11106e-10 -1.04573e-10 -9.76348e-11 -9.04007e-11 -8.29589e-11 -7.69494e-11 -6.76419e-11 -5.98821e-11 -4.72794e-11 -3.54021e-11 -2.40071e-11 -1.3159e-11 -2.92525e-12 6.65172e-12 1.55376e-11 2.37041e-11 3.11301e-11 3.78001e-11 4.37023e-11 4.88294e-11 5.3178e-11 5.67491e-11 5.95451e-11 6.15685e-11 6.28223e-11 6.33119e-11 6.30513e-11 6.20466e-11 6.0304e-11 5.78421e-11 5.50661e-11 5.12459e-11 4.67558e-11 4.10191e-11 3.54588e-11 2.8815e-11 2.15924e-11 1.01107e-11 1.16553e-13 1.83461e-11 3.65812e-11 5.28095e-11 4.68277e-11 3.99679e-11 3.27624e-11 2.53599e-11 1.78173e-11 1.01677e-11 2.42318e-12 -5.4134e-12 -1.33412e-11 -2.13594e-11 -2.9465e-11 -3.76463e-11 -4.58704e-11 -5.40797e-11 -6.21231e-11 -6.94888e-11 1.02925e-10 9.19718e-11 7.96394e-11 6.66506e-11 5.31644e-11 3.92937e-11 2.51365e-11 1.07633e-11 -3.76439e-12 -1.83869e-11 -3.30443e-11 -4.76751e-11 -6.22088e-11 -7.65486e-11 -9.05797e-11 -1.04134e-10 -1.16521e-10 -2.1867e-11 -8.15319e-12 -4.15433e-12 -2.58351e-12 2.6872e-12 -1.00476e-12 -3.78057e-12 -6.68686e-12 -1.1631e-11 -1.6232e-11 -2.09278e-11 -2.55354e-11 -2.98917e-11 -3.3837e-11 -3.71943e-11 -3.97951e-11 -4.14948e-11 -4.21745e-11 -4.17456e-11 -4.01466e-11 -3.73423e-11 -3.33275e-11 -2.81187e-11 -2.17474e-11 -1.42645e-11 -5.73582e-12 3.76906e-12 1.41572e-11 2.52854e-11 3.86513e-11 4.67049e-11 5.3429e-11 6.26421e-11 7.02679e-11 7.76423e-11 8.46957e-11 9.13313e-11 9.74529e-11 1.02948e-10 1.07354e-10 1.11874e-10 1.1509e-10 1.19762e-10 1.2405e-10 1.26154e-10 1.25394e-10 1.2093e-10 1.11353e-10 9.41675e-11 8.07143e-11 6.02062e-11 4.47519e-11 4.1159e-12 -4.27891e-11 -5.95329e-11 -8.16696e-11 -9.66142e-11 -1.16265e-10 -1.27384e-10 -1.32835e-10 -1.34056e-10 -1.32119e-10 -1.29078e-10 -1.26829e-10 -1.22944e-10 -1.19061e-10 -1.13932e-10 -1.08127e-10 -1.01792e-10 -9.50444e-11 -8.80004e-11 -8.07242e-11 -7.17768e-11 -6.55701e-11 -5.79513e-11 -4.44245e-11 -3.33388e-11 -2.27058e-11 -1.26115e-11 -3.11709e-12 5.74205e-12 1.39308e-11 2.14198e-11 2.81871e-11 3.42162e-11 3.94948e-11 4.4015e-11 4.7773e-11 5.07692e-11 5.30052e-11 5.44834e-11 5.52064e-11 5.51798e-11 5.44173e-11 5.29214e-11 5.07063e-11 4.78062e-11 4.33988e-11 4.02673e-11 3.53191e-11 2.72403e-11 2.61101e-11 1.92298e-11 1.18149e-11 3.78378e-12 1.1667e-13 1.85531e-11 3.70358e-11 4.91745e-11 4.34824e-11 3.71289e-11 3.03753e-11 2.34061e-11 1.63033e-11 9.09348e-12 1.78757e-12 -5.6104e-12 -1.30997e-11 -2.06796e-11 -2.83463e-11 -3.60892e-11 -4.38822e-11 -5.16471e-11 -5.92022e-11 -6.628e-11 9.91485e-11 8.84189e-11 7.66643e-11 6.4114e-11 5.105e-11 3.76177e-11 2.38987e-11 9.96315e-12 -4.1255e-12 -1.83078e-11 -3.25242e-11 -4.67117e-11 -6.08001e-11 -7.47078e-11 -8.82946e-11 -1.01282e-10 -1.13421e-10 -2.73818e-11 -1.46657e-11 -1.06427e-11 -8.88311e-12 -6.28413e-12 -8.35599e-12 -1.07979e-11 -1.39734e-11 -1.79048e-11 -2.21555e-11 -2.65153e-11 -3.07848e-11 -3.48099e-11 -3.84333e-11 -4.14763e-11 -4.37672e-11 -4.51567e-11 -4.55213e-11 -4.47676e-11 -4.28295e-11 -3.96683e-11 -3.52766e-11 -2.96681e-11 -2.2873e-11 -1.49428e-11 -5.94162e-12 4.06488e-12 1.49511e-11 2.65524e-11 3.96934e-11 4.7853e-11 5.65517e-11 6.39217e-11 7.16662e-11 7.91708e-11 8.63522e-11 9.3116e-11 9.93599e-11 1.04987e-10 1.10362e-10 1.14004e-10 1.17261e-10 1.22779e-10 1.27144e-10 1.29445e-10 1.28819e-10 1.24395e-10 1.14716e-10 9.72248e-11 8.336e-11 6.23031e-11 4.616e-11 4.23504e-12 -4.40466e-11 -6.14976e-11 -8.42016e-11 -9.9574e-11 -1.19582e-10 -1.30841e-10 -1.36253e-10 -1.37319e-10 -1.35307e-10 -1.31374e-10 -1.29081e-10 -1.25998e-10 -1.21217e-10 -1.1595e-10 -1.10023e-10 -1.03562e-10 -9.66931e-11 -8.95285e-11 -8.21467e-11 -7.50656e-11 -6.68898e-11 -5.91801e-11 -4.61953e-11 -3.46641e-11 -2.35534e-11 -1.29722e-11 -3.00802e-12 6.30676e-12 1.49389e-11 2.28588e-11 3.00449e-11 3.64816e-11 4.21567e-11 4.70629e-11 5.11965e-11 5.45584e-11 5.71506e-11 5.89755e-11 6.0036e-11 6.03378e-11 5.98952e-11 5.8711e-11 5.67894e-11 5.41781e-11 5.08408e-11 4.72548e-11 4.25264e-11 3.60157e-11 3.22497e-11 2.55431e-11 1.82311e-11 7.93839e-12 1.22473e-13 1.84206e-11 3.67409e-11 5.14813e-11 4.56055e-11 3.89302e-11 3.18914e-11 2.46476e-11 1.72652e-11 9.7757e-12 2.19076e-12 -5.48626e-12 -1.32545e-11 -2.11133e-11 -2.90591e-11 -3.70806e-11 -4.51469e-11 -5.31934e-11 -6.10561e-11 -6.831e-11 1.01551e-10 9.068e-11 7.85547e-11 6.57282e-11 5.23963e-11 3.86844e-11 2.46862e-11 1.04717e-11 -3.89691e-12 -1.83598e-11 -3.28574e-11 -4.73274e-11 -6.16996e-11 -7.58814e-11 -8.97506e-11 -1.03098e-10 -1.15384e-10 -2.42213e-11 -1.09441e-11 -6.9455e-12 -5.27767e-12 -1.16627e-12 -4.152e-12 -6.78534e-12 -9.8199e-12 -1.43176e-11 -1.87622e-11 -2.33142e-11 -2.77778e-11 -3.19914e-11 -3.57984e-11 -3.90208e-11 -4.14886e-11 -4.30553e-11 -4.35998e-11 -4.30316e-11 -4.12873e-11 -3.83301e-11 -3.41539e-11 -2.87738e-11 -2.22209e-11 -1.45469e-11 -5.81625e-12 3.90676e-12 1.45064e-11 2.58073e-11 3.90984e-11 4.71976e-11 5.47665e-11 6.31905e-11 7.08676e-11 7.82976e-11 8.54057e-11 9.20961e-11 9.827e-11 1.03821e-10 1.08642e-10 1.12786e-10 1.16019e-10 1.21094e-10 1.25359e-10 1.27561e-10 1.26857e-10 1.22408e-10 1.12788e-10 9.54732e-11 8.18447e-11 6.11034e-11 4.53545e-11 4.16699e-12 -4.33269e-11 -6.03737e-11 -8.27516e-11 -9.78788e-11 -1.1768e-10 -1.2886e-10 -1.34295e-10 -1.35437e-10 -1.3352e-10 -1.30061e-10 -1.27794e-10 -1.24252e-10 -1.19984e-10 -1.14797e-10 -1.08939e-10 -1.0255e-10 -9.57511e-11 -8.86556e-11 -8.13337e-11 -7.31854e-11 -6.6136e-11 -5.84782e-11 -4.51625e-11 -3.39121e-11 -2.30774e-11 -1.27712e-11 -3.07585e-12 5.97807e-12 1.43567e-11 2.20303e-11 2.89769e-11 3.51806e-11 4.0629e-11 4.53146e-11 4.92334e-11 5.23863e-11 5.47748e-11 5.64016e-11 5.72691e-11 5.73831e-11 5.67581e-11 5.53949e-11 5.33036e-11 5.05312e-11 4.6594e-11 4.32616e-11 3.83775e-11 3.10098e-11 2.87333e-11 2.19377e-11 1.45522e-11 5.55753e-12 1.22139e-13 1.84959e-11 3.69068e-11 5.01605e-11 4.43874e-11 3.78988e-11 3.1024e-11 2.39374e-11 1.67148e-11 9.38526e-12 1.95981e-12 -5.55772e-12 -1.31665e-11 -2.08659e-11 -2.86522e-11 -3.65143e-11 -4.44241e-11 -5.23094e-11 -5.9992e-11 -6.71455e-11 1.00179e-10 8.93843e-11 7.74739e-11 6.48061e-11 5.16271e-11 3.8075e-11 2.42361e-11 1.01808e-11 -4.02804e-12 -1.83308e-11 -3.2668e-11 -4.69767e-11 -6.11867e-11 -7.5212e-11 -8.892e-11 -1.02057e-10 -1.14259e-10 -2.97687e-11 -1.74573e-11 -1.34004e-11 -1.15927e-11 -1.01188e-11 -1.15116e-11 -1.38136e-11 -1.7069e-11 -2.05994e-11 -2.47167e-11 -2.893e-11 -3.30532e-11 -3.6938e-11 -4.04244e-11 -4.33332e-11 -4.54917e-11 -4.67487e-11 -4.69785e-11 -4.60857e-11 -4.40024e-11 -4.06882e-11 -3.61346e-11 -3.03547e-11 -2.33777e-11 -1.52545e-11 -6.04955e-12 4.16366e-12 1.52709e-11 2.71435e-11 4.01394e-11 4.83433e-11 5.78927e-11 6.44695e-11 7.22646e-11 7.98255e-11 8.7062e-11 9.38812e-11 1.00177e-10 1.05862e-10 1.11656e-10 1.14918e-10 1.18194e-10 1.23975e-10 1.28513e-10 1.30865e-10 1.303e-10 1.25896e-10 1.16175e-10 9.85465e-11 8.45027e-11 6.32055e-11 4.67657e-11 4.28603e-12 -4.45884e-11 -6.2343e-11 -8.52947e-11 -1.00852e-10 -1.2102e-10 -1.32337e-10 -1.3773e-10 -1.3876e-10 -1.36587e-10 -1.32361e-10 -1.30048e-10 -1.27312e-10 -1.22142e-10 -1.16816e-10 -1.10835e-10 -1.0432e-10 -9.73994e-11 -9.01827e-11 -8.2756e-11 -7.6478e-11 -6.74541e-11 -5.97066e-11 -4.70032e-11 -3.52195e-11 -2.38956e-11 -1.31136e-11 -2.94736e-12 6.56394e-12 1.53864e-11 2.34912e-11 3.08572e-11 3.74688e-11 4.33142e-11 4.8386e-11 5.26809e-11 5.61997e-11 5.89447e-11 6.09184e-11 6.21239e-11 6.25665e-11 6.22604e-11 6.1211e-11 5.94223e-11 5.69247e-11 5.40119e-11 5.02497e-11 4.56893e-11 3.97695e-11 3.48968e-11 2.82459e-11 2.10097e-11 9.73779e-12 1.18571e-13 1.83647e-11 3.66206e-11 5.24768e-11 4.65223e-11 3.97078e-11 3.25443e-11 2.51817e-11 1.76791e-11 1.00696e-11 2.36494e-12 -5.43174e-12 -1.33197e-11 -2.1298e-11 -2.93637e-11 -3.75049e-11 -4.56894e-11 -5.38578e-11 -6.18568e-11 -6.91926e-11 1.02582e-10 9.16501e-11 7.93677e-11 6.642e-11 5.29725e-11 3.91414e-11 2.50239e-11 1.06904e-11 -3.79765e-12 -1.83803e-11 -3.29978e-11 -4.75884e-11 -6.20819e-11 -7.63819e-11 -9.03723e-11 -1.03876e-10 -1.16235e-10 -2.13847e-11 -7.55397e-12 -3.56647e-12 -2.0047e-12 3.97068e-12 4.38461e-14 -2.77969e-12 -5.63932e-12 -1.0736e-11 -1.53914e-11 -2.01351e-11 -2.47903e-11 -2.91945e-11 -3.3186e-11 -3.65883e-11 -3.92336e-11 -4.09776e-11 -4.17023e-11 -4.13199e-11 -3.97694e-11 -3.7016e-11 -3.3055e-11 -2.79033e-11 -2.15924e-11 -1.41731e-11 -5.71159e-12 3.72001e-12 1.40364e-11 2.51205e-11 3.85021e-11 4.65405e-11 5.29832e-11 6.24594e-11 7.00679e-11 7.74238e-11 8.4459e-11 9.10764e-11 9.71807e-11 1.02656e-10 1.06925e-10 1.1157e-10 1.14781e-10 1.19304e-10 1.23621e-10 1.25685e-10 1.24909e-10 1.20439e-10 1.10877e-10 9.37338e-11 8.03387e-11 5.99075e-11 4.45513e-11 4.09886e-12 -4.26102e-11 -5.92531e-11 -8.13099e-11 -9.6194e-11 -1.15796e-10 -1.26894e-10 -1.32349e-10 -1.33602e-10 -1.3164e-10 -1.28751e-10 -1.26508e-10 -1.22509e-10 -1.18753e-10 -1.13644e-10 -1.07856e-10 -1.01539e-10 -9.48088e-11 -8.77819e-11 -8.05212e-11 -7.13074e-11 -6.53814e-11 -5.77754e-11 -4.4187e-11 -3.31448e-11 -2.25795e-11 -1.25565e-11 -3.12902e-12 5.66535e-12 1.37908e-11 2.12183e-11 2.79259e-11 3.38969e-11 3.91189e-11 4.3584e-11 4.72884e-11 5.02324e-11 5.24176e-11 5.38463e-11 5.45212e-11 5.44477e-11 5.36392e-11 5.20995e-11 4.98438e-11 4.68992e-11 4.23331e-11 3.92672e-11 3.43109e-11 2.59836e-11 2.5551e-11 1.86634e-11 1.1237e-11 3.41918e-12 1.13461e-13 1.85724e-11 3.70797e-11 4.88466e-11 4.31831e-11 3.68728e-11 3.01594e-11 2.32294e-11 1.61663e-11 8.99642e-12 1.73034e-12 -5.62779e-12 -1.30772e-11 -2.06174e-11 -2.82442e-11 -3.59475e-11 -4.37015e-11 -5.14264e-11 -5.89412e-11 -6.59929e-11 9.88041e-11 8.80997e-11 7.63944e-11 6.3883e-11 5.08576e-11 3.74652e-11 2.37862e-11 9.89069e-12 -4.15782e-12 -1.82999e-11 -3.2476e-11 -4.6623e-11 -6.06709e-11 -7.45393e-11 -8.80855e-11 -1.01027e-10 -1.13141e-10 -2.65893e-11 -1.37353e-11 -9.72064e-12 -7.98082e-12 -5.00568e-12 -7.30451e-12 -9.7939e-12 -1.29377e-11 -1.70074e-11 -2.1305e-11 -2.5713e-11 -3.00312e-11 -3.41033e-11 -3.77724e-11 -4.08602e-11 -4.31953e-11 -4.46291e-11 -4.50387e-11 -4.43313e-11 -4.24417e-11 -3.93315e-11 -3.49937e-11 -2.94423e-11 -2.27077e-11 -1.48417e-11 -5.9083e-12 4.0282e-12 1.48418e-11 2.63615e-11 3.95447e-11 4.76893e-11 5.61051e-11 6.3739e-11 7.14666e-11 7.89526e-11 8.61156e-11 9.2861e-11 9.90874e-11 1.04695e-10 1.09932e-10 1.13699e-10 1.1695e-10 1.22367e-10 1.26694e-10 1.28973e-10 1.28327e-10 1.23897e-10 1.14233e-10 9.67858e-11 8.29802e-11 6.20028e-11 4.59584e-11 4.21804e-12 -4.38664e-11 -6.12163e-11 -8.38383e-11 -9.91492e-11 -1.19105e-10 -1.30344e-10 -1.35762e-10 -1.36845e-10 -1.34869e-10 -1.31045e-10 -1.28759e-10 -1.25561e-10 -1.20908e-10 -1.15662e-10 -1.09752e-10 -1.03309e-10 -9.64577e-11 -8.93103e-11 -8.19434e-11 -7.45952e-11 -6.67015e-11 -5.90047e-11 -4.59324e-11 -3.44772e-11 -2.34366e-11 -1.29232e-11 -3.02636e-12 6.22307e-12 1.47918e-11 2.26501e-11 2.97763e-11 3.61547e-11 4.17731e-11 4.66241e-11 5.0704e-11 5.40136e-11 5.65549e-11 5.83302e-11 5.93425e-11 5.95973e-11 5.91092e-11 5.788e-11 5.59154e-11 5.32648e-11 4.9781e-11 4.6256e-11 4.14823e-11 3.47645e-11 3.13692e-11 2.46419e-11 1.73086e-11 7.34128e-12 1.23019e-13 1.84393e-11 3.67818e-11 5.11504e-11 4.53002e-11 3.86718e-11 3.16743e-11 2.44699e-11 1.71274e-11 9.67794e-12 2.13288e-12 -5.50425e-12 -1.32327e-11 -2.10515e-11 -2.89575e-11 -3.69391e-11 -4.49662e-11 -5.29722e-11 -6.07893e-11 -6.80176e-11 1.01208e-10 9.03559e-11 7.82843e-11 6.54977e-11 5.2204e-11 3.85321e-11 2.45736e-11 1.03989e-11 -3.929