<?xml version="1.0"?>
<VTKFile byte_order="LittleEndian" type="UnstructuredGrid" version="0.1">
<UnstructuredGrid>
<Piece NumberOfCells="2320" NumberOfPoints="2414">
<PointData>
<DataArray Name="Warping_X" format="ascii" type="Float64">
3.51498e-10 3.28756e-10 3.14249e-10 3.00095e-10 2.85718e-10 2.72012e-10 2.54293e-10 2.3464e-10 2.19442e-10 2.02696e-10 1.86385e-10 1.70472e-10 1.5492e-10 1.39703e-10 1.24798e-10 1.10185e-10 9.58493e-11 8.17778e-11 6.79641e-11 5.44064e-11 4.11073e-11 2.80727e-11 1.5311e-11 2.8329e-12 -9.3501e-12 -2.12283e-11 -3.27885e-11 -4.40202e-11 -5.49637e-11 -6.56441e-11 -7.16275e-11 -7.87097e-11 -8.27989e-11 -8.79231e-11 -9.27729e-11 -9.73483e-11 -1.01649e-10 -1.05671e-10 -1.09413e-10 -1.13692e-10 -1.16004e-10 -1.18861e-10 -1.23094e-10 -1.27237e-10 -1.30891e-10 -1.34007e-10 -1.36535e-10 -1.38416e-10 -1.39525e-10 -1.39724e-10 -1.39578e-10 -1.39321e-10 -1.38175e-10 -1.36039e-10 -1.35069e-10 -1.33646e-10 -1.32426e-10 -1.30074e-10 -1.27546e-10 -1.24765e-10 -1.21685e-10 -1.18291e-10 -1.14822e-10 -1.12447e-10 -1.10519e-10 -1.06965e-10 -1.03851e-10 -1.00499e-10 -9.69062e-11 -9.30743e-11 -8.90012e-11 -8.46819e-11 -8.12438e-11 -7.5212e-11 -7.01327e-11 -6.09251e-11 -5.13678e-11 -4.14454e-11 -3.11282e-11 -2.04206e-11 -9.32828e-12 2.14571e-12 1.39971e-11 2.62214e-11 3.88141e-11 5.1771e-11 6.50878e-11 7.87602e-11 9.27839e-11 1.07155e-10 1.21869e-10 1.36924e-10 1.52316e-10 1.68045e-10 1.84116e-10 2.00556e-10 2.17407e-10 2.32755e-10 2.52521e-10 2.70149e-10 2.84134e-10 2.98615e-10 3.13014e-10 3.27652e-10 3.49981e-10 2.35228e-10 2.35144e-10 2.34481e-10 -7.94325e-11 -8.02884e-11 -8.05096e-11 -8.05661e-11 -8.05945e-11 -8.06226e-11 -8.0674e-11 -8.07588e-11 -8.08786e-11 -8.10326e-11 -8.12181e-11 -8.14302e-11 -8.16561e-11 -8.18718e-11 -8.20505e-11 -8.20616e-11 -8.14857e-11 -1.13887e-10 -1.14074e-10 -1.1382e-10 -1.13489e-10 -1.13144e-10 -1.12805e-10 -1.12493e-10 -1.12217e-10 -1.11981e-10 -1.11785e-10 -1.1163e-10 -1.11515e-10 -1.11435e-10 -1.11376e-10 -1.1132e-10 -1.11216e-10 -1.1077e-10 3.47715e-10 3.29174e-10 3.14356e-10 3e-10 2.85471e-10 2.7105e-10 2.53769e-10 2.37774e-10 2.18424e-10 2.01631e-10 1.85289e-10 1.69317e-10 1.53728e-10 1.38498e-10 1.23607e-10 1.09035e-10 9.4765e-11 8.07808e-11 6.70721e-11 5.36343e-11 4.04655e-11 2.75667e-11 1.49446e-11 2.60893e-12 -9.43183e-12 -2.11719e-11 -3.26127e-11 -4.37252e-11 -5.45017e-11 -6.53464e-11 -7.12947e-11 -7.64225e-11 -8.24239e-11 -8.75319e-11 -9.23538e-11 -9.69013e-11 -1.01172e-10 -1.05163e-10 -1.08867e-10 -1.12169e-10 -1.15427e-10 -1.18278e-10 -1.2241e-10 -1.26502e-10 -1.30172e-10 -1.33278e-10 -1.35807e-10 -1.37694e-10 -1.38841e-10 -1.39055e-10 -1.38949e-10 -1.38708e-10 -1.37643e-10 -1.35564e-10 -1.34644e-10 -1.33236e-10 -1.32038e-10 -1.29678e-10 -1.27151e-10 -1.24368e-10 -1.21259e-10 -1.17878e-10 -1.14468e-10 -1.12096e-10 -1.09331e-10 -1.06638e-10 -1.03545e-10 -1.00208e-10 -9.66275e-11 -9.28029e-11 -8.87349e-11 -8.44094e-11 -7.92191e-11 -7.49405e-11 -6.98681e-11 -6.03719e-11 -5.0866e-11 -4.09634e-11 -3.0661e-11 -1.99855e-11 -8.93024e-12 2.5042e-12 1.43128e-11 2.64908e-11 3.90335e-11 5.19366e-11 6.51961e-11 7.88081e-11 9.27682e-11 1.07072e-10 1.21714e-10 1.36692e-10 1.52003e-10 1.67648e-10 1.83633e-10 1.99932e-10 2.16639e-10 2.36584e-10 2.51651e-10 2.68495e-10 2.82672e-10 2.97527e-10 3.11793e-10 3.26159e-10 3.4576e-10 2.37975e-10 2.37743e-10 2.37281e-10 -7.67715e-11 -7.74156e-11 -7.76932e-11 -7.77972e-11 -7.78424e-11 -7.78918e-11 -7.79661e-11 -7.80728e-11 -7.82143e-11 -7.83902e-11 -7.85974e-11 -7.88303e-11 -7.90789e-11 -7.93221e-11 -7.95009e-11 -7.95074e-11 -7.91803e-11 -1.12011e-10 -1.12067e-10 -1.11893e-10 -1.11595e-10 -1.11265e-10 -1.10948e-10 -1.10659e-10 -1.10406e-10 -1.10191e-10 -1.10017e-10 -1.09884e-10 -1.0979e-10 -1.09732e-10 -1.097e-10 -1.09659e-10 -1.09534e-10 -1.09244e-10 3.5045e-10 3.28815e-10 3.14302e-10 3.00088e-10 2.85708e-10 2.71531e-10 2.54193e-10 2.35581e-10 2.19042e-10 2.02304e-10 1.85976e-10 1.70035e-10 1.54467e-10 1.39243e-10 1.24341e-10 1.09741e-10 9.54269e-11 8.13853e-11 6.76081e-11 5.40923e-11 4.08393e-11 2.78531e-11 1.51412e-11 2.71431e-12 -9.41659e-12 -2.12443e-11 -3.27638e-11 -4.39419e-11 -5.47771e-11 -6.55339e-11 -7.15078e-11 -7.79827e-11 -8.26627e-11 -8.77796e-11 -9.26195e-11 -9.71847e-11 -1.01475e-10 -1.05484e-10 -1.09216e-10 -1.13195e-10 -1.15794e-10 -1.18649e-10 -1.229e-10 -1.26995e-10 -1.30662e-10 -1.33774e-10 -1.36304e-10 -1.38189e-10 -1.39314e-10 -1.39521e-10 -1.39391e-10 -1.39134e-10 -1.38015e-10 -1.35896e-10 -1.34943e-10 -1.33522e-10 -1.32304e-10 -1.29946e-10 -1.27416e-10 -1.24634e-10 -1.21539e-10 -1.18173e-10 -1.14694e-10 -1.1232e-10 -1.10132e-10 -1.06848e-10 -1.03738e-10 -1.00392e-10 -9.68037e-11 -9.29746e-11 -8.89029e-11 -8.45836e-11 -8.05945e-11 -7.51156e-11 -7.00325e-11 -6.07047e-11 -5.12054e-11 -4.12997e-11 -3.09864e-11 -2.02918e-11 -9.21473e-12 2.24385e-12 1.40789e-11 2.62856e-11 3.88596e-11 5.17965e-11 6.50922e-11 7.87426e-11 9.27432e-11 1.0709e-10 1.21778e-10 1.36806e-10 1.52169e-10 1.67868e-10 1.83914e-10 2.00304e-10 2.17088e-10 2.33913e-10 2.52252e-10 2.69468e-10 2.83726e-10 2.98329e-10 3.12707e-10 3.27232e-10 3.48809e-10 2.36065e-10 2.35939e-10 2.35329e-10 -7.86049e-11 -7.94192e-11 -7.96526e-11 -7.97217e-11 -7.97565e-11 -7.97912e-11 -7.98495e-11 -7.9941e-11 -8.00675e-11 -8.02282e-11 -8.04203e-11 -8.06389e-11 -8.08714e-11 -8.10944e-11 -8.1275e-11 -8.12855e-11 -8.07593e-11 -1.13308e-10 -1.13471e-10 -1.13234e-10 -1.12913e-10 -1.12573e-10 -1.12241e-10 -1.11936e-10 -1.11667e-10 -1.11437e-10 -1.11248e-10 -1.111e-10 -1.10992e-10 -1.10919e-10 -1.10866e-10 -1.10816e-10 -1.10709e-10 -1.10293e-10 3.46543e-10 3.2934e-10 3.14399e-10 2.99909e-10 2.85209e-10 2.71338e-10 2.53314e-10 2.39099e-10 2.18085e-10 2.01233e-10 1.84862e-10 1.68883e-10 1.53284e-10 1.38052e-10 1.2317e-10 1.08618e-10 9.43749e-11 8.04253e-11 6.67575e-11 5.33655e-11 4.02455e-11 2.7397e-11 1.48268e-11 2.54348e-12 -9.44707e-12 -2.11371e-11 -3.25231e-11 -4.36128e-11 -5.44278e-11 -6.52423e-11 -7.11733e-11 -7.55315e-11 -8.22884e-11 -8.73922e-11 -9.22035e-11 -9.67412e-11 -1.01e-10 -1.04981e-10 -1.08669e-10 -1.11583e-10 -1.15216e-10 -1.18074e-10 -1.22148e-10 -1.26309e-10 -1.29961e-10 -1.33066e-10 -1.35594e-10 -1.37482e-10 -1.38636e-10 -1.3885e-10 -1.38754e-10 -1.38508e-10 -1.37467e-10 -1.35408e-10 -1.34512e-10 -1.3311e-10 -1.31922e-10 -1.29563e-10 -1.27038e-10 -1.24255e-10 -1.21155e-10 -1.17713e-10 -1.14348e-10 -1.11968e-10 -1.08873e-10 -1.06519e-10 -1.03437e-10 -1.00104e-10 -9.65286e-11 -9.27064e-11 -8.86408e-11 -8.43109e-11 -7.84329e-11 -7.4841e-11 -6.97775e-11 -6.02566e-11 -5.06935e-11 -4.07762e-11 -3.04895e-11 -1.98252e-11 -8.78153e-12 2.63895e-12 1.44322e-11 2.65937e-11 3.91185e-11 5.20022e-11 6.52409e-11 7.88308e-11 9.27676e-11 1.07046e-10 1.21662e-10 1.36612e-10 1.51894e-10 1.67507e-10 1.83447e-10 1.99718e-10 2.16395e-10 2.38242e-10 2.51109e-10 2.68538e-10 2.81968e-10 2.97242e-10 3.11512e-10 3.25855e-10 3.44555e-10 2.39045e-10 2.38806e-10 2.38363e-10 -7.57169e-11 -7.62713e-11 -7.65689e-11 -7.66885e-11 -7.67394e-11 -7.67968e-11 -7.688e-11 -7.69953e-11 -7.71454e-11 -7.73299e-11 -7.75457e-11 -7.77871e-11 -7.80453e-11 -7.82997e-11 -7.84798e-11 -7.8496e-11 -7.82784e-11 -1.11258e-10 -1.11264e-10 -1.1112e-10 -1.10832e-10 -1.10508e-10 -1.102e-10 -1.0992e-10 -1.09675e-10 -1.09468e-10 -1.09303e-10 -1.09179e-10 -1.09094e-10 -1.09045e-10 -1.09024e-10 -1.08989e-10 -1.08863e-10 -1.0864e-10 3.48897e-10 3.28951e-10 3.14325e-10 3.0005e-10 2.8562e-10 2.71065e-10 2.54012e-10 2.36822e-10 2.18679e-10 2.01926e-10 1.85593e-10 1.69632e-10 1.54051e-10 1.38823e-10 1.23926e-10 1.09342e-10 9.5052e-11 8.10426e-11 6.73041e-11 5.38325e-11 4.06275e-11 2.76911e-11 1.50303e-11 2.65554e-12 -9.42346e-12 -2.12013e-11 -3.26784e-11 -4.3814e-11 -5.45973e-11 -6.54258e-11 -7.1386e-11 -7.70908e-11 -8.25261e-11 -8.76375e-11 -9.24672e-11 -9.70223e-11 -1.01301e-10 -1.053e-10 -1.09016e-10 -1.12608e-10 -1.15584e-10 -1.18436e-10 -1.22639e-10 -1.26705e-10 -1.3038e-10 -1.33489e-10 -1.36018e-10 -1.37905e-10 -1.39043e-10 -1.39255e-10 -1.39139e-10 -1.38892e-10 -1.37804e-10 -1.35708e-10 -1.34774e-10 -1.33359e-10 -1.32153e-10 -1.29792e-10 -1.27264e-10 -1.24481e-10 -1.21373e-10 -1.18019e-10 -1.14564e-10 -1.12192e-10 -1.09674e-10 -1.06728e-10 -1.03628e-10 -1.00286e-10 -9.67025e-11 -9.2876e-11 -8.88063e-11 -8.44839e-11 -7.98084e-11 -7.50154e-11 -6.99377e-11 -6.04939e-11 -5.10051e-11 -4.11061e-11 -3.07966e-11 -2.01127e-11 -9.04836e-12 2.39647e-12 1.42164e-11 2.64068e-11 3.89629e-11 5.18805e-11 6.51556e-11 7.87841e-11 9.27616e-11 1.07084e-10 1.21746e-10 1.36745e-10 1.52078e-10 1.67747e-10 1.83759e-10 2.00095e-10 2.16822e-10 2.35417e-10 2.51958e-10 2.68737e-10 2.8318e-10 2.97874e-10 3.12183e-10 3.26573e-10 3.47063e-10 2.37158e-10 2.36964e-10 2.36448e-10 -7.75582e-11 -7.82759e-11 -7.85345e-11 -7.86241e-11 -7.86653e-11 -7.87084e-11 -7.87759e-11 -7.88762e-11 -7.90113e-11 -7.91806e-11 -7.93814e-11 -7.96081e-11 -7.98497e-11 -8.0084e-11 -8.02635e-11 -8.02698e-11 -7.98559e-11 -1.12569e-10 -1.12671e-10 -1.1247e-10 -1.12162e-10 -1.11828e-10 -1.11505e-10 -1.11209e-10 -1.10949e-10 -1.10728e-10 -1.10547e-10 -1.10408e-10 -1.10308e-10 -1.10243e-10 -1.10202e-10 -1.10157e-10 -1.10039e-10 -1.09694e-10 3.51196e-10 3.28884e-10 3.14281e-10 3.00106e-10 2.85691e-10 2.71982e-10 2.54227e-10 2.34801e-10 2.19336e-10 2.02574e-10 1.86249e-10 1.70327e-10 1.54769e-10 1.39549e-10 1.24644e-10 1.10034e-10 9.57024e-11 8.16374e-11 6.78319e-11 5.42837e-11 4.09951e-11 2.79717e-11 1.52216e-11 2.75576e-12 -9.41465e-12 -2.12798e-11 -3.28266e-11 -4.40421e-11 -5.49572e-11 -6.56174e-11 -7.15979e-11 -7.85694e-11 -8.27647e-11 -8.78871e-11 -9.27344e-11 -9.73073e-11 -1.01606e-10 -1.05624e-10 -1.09365e-10 -1.1359e-10 -1.15954e-10 -1.18801e-10 -1.23014e-10 -1.27153e-10 -1.30807e-10 -1.33922e-10 -1.36452e-10 -1.38336e-10 -1.39453e-10 -1.39657e-10 -1.39518e-10 -1.39266e-10 -1.38129e-10 -1.35997e-10 -1.35028e-10 -1.33604e-10 -1.32381e-10 -1.30026e-10 -1.27495e-10 -1.24712e-10 -1.21631e-10 -1.18237e-10 -1.14783e-10 -1.12418e-10 -1.1044e-10 -1.06937e-10 -1.03822e-10 -1.00472e-10 -9.68805e-11 -9.30493e-11 -8.89765e-11 -8.46574e-11 -8.11158e-11 -7.5189e-11 -7.01063e-11 -6.09048e-11 -5.13635e-11 -4.14477e-11 -3.11356e-11 -2.04334e-11 -9.34625e-12 2.12259e-12 1.39688e-11 2.61878e-11 3.87751e-11 5.17265e-11 6.50376e-11 7.87043e-11 9.27222e-11 1.07087e-10 1.21795e-10 1.36844e-10 1.5223e-10 1.67952e-10 1.84019e-10 2.00455e-10 2.17305e-10 2.32951e-10 2.52408e-10 2.70028e-10 2.83985e-10 2.98467e-10 3.12861e-10 3.27492e-10 3.49588e-10 2.35372e-10 2.35287e-10 2.34625e-10 -7.92802e-11 -8.01379e-11 -8.03597e-11 -8.04175e-11 -8.04471e-11 -8.04763e-11 -8.05289e-11 -8.06148e-11 -8.07358e-11 -8.0891e-11 -8.10777e-11 -8.12909e-11 -8.1518e-11 -8.17347e-11 -8.19144e-11 -8.19264e-11 -8.13494e-11 -1.13782e-10 -1.13971e-10 -1.13717e-10 -1.13388e-10 -1.13044e-10 -1.12706e-10 -1.12395e-10 -1.12121e-10 -1.11885e-10 -1.1169e-10 -1.11537e-10 -1.11423e-10 -1.11345e-10 -1.11286e-10 -1.11232e-10 -1.11128e-10 -1.10682e-10 3.47316e-10 3.29274e-10 3.14368e-10 2.99979e-10 2.85401e-10 2.71112e-10 2.53665e-10 2.38097e-10 2.1834e-10 2.01531e-10 1.85185e-10 1.6921e-10 1.53619e-10 1.38388e-10 1.23499e-10 1.08932e-10 9.46683e-11 8.06926e-11 6.69941e-11 5.35675e-11 4.04109e-11 2.75246e-11 1.49155e-11 2.59291e-12 -9.43522e-12 -2.11628e-11 -3.25904e-11 -4.36968e-11 -5.44772e-11 -6.53201e-11 -7.12643e-11 -7.61998e-11 -8.239e-11 -8.74968e-11 -9.23161e-11 -9.68612e-11 -1.01129e-10 -1.05117e-10 -1.08817e-10 -1.12022e-10 -1.15374e-10 -1.18225e-10 -1.22327e-10 -1.26437e-10 -1.30103e-10 -1.33208e-10 -1.35737e-10 -1.37624e-10 -1.38774e-10 -1.38988e-10 -1.38885e-10 -1.38646e-10 -1.37588e-10 -1.35515e-10 -1.34601e-10 -1.33194e-10 -1.32e-10 -1.2964e-10 -1.27113e-10 -1.24331e-10 -1.21224e-10 -1.17826e-10 -1.14436e-10 -1.12064e-10 -1.09216e-10 -1.06608e-10 -1.03518e-10 -1.00182e-10 -9.66026e-11 -9.27786e-11 -8.87112e-11 -8.43847e-11 -7.90226e-11 -7.49156e-11 -6.98453e-11 -6.03378e-11 -5.08216e-11 -4.09163e-11 -3.06171e-11 -1.99444e-11 -8.89213e-12 2.53884e-12 1.43436e-11 2.65175e-11 3.90557e-11 5.1954e-11 6.52083e-11 7.88148e-11 9.27691e-11 1.07066e-10 1.21702e-10 1.36673e-10 1.51977e-10 1.67614e-10 1.83589e-10 1.99878e-10 2.1658e-10 2.36984e-10 2.5153e-10 2.68476e-10 2.82475e-10 2.97412e-10 3.11663e-10 3.26036e-10 3.45326e-10 2.38245e-10 2.38005e-10 2.37556e-10 -7.65086e-11 -7.7129e-11 -7.74124e-11 -7.75207e-11 -7.75673e-11 -7.76187e-11 -7.76952e-11 -7.78041e-11 -7.79478e-11 -7.81258e-11 -7.83352e-11 -7.85702e-11 -7.88212e-11 -7.90672e-11 -7.9246e-11 -7.92538e-11 -7.89551e-11 -1.11824e-10 -1.11866e-10 -1.117e-10 -1.11405e-10 -1.11076e-10 -1.10762e-10 -1.10475e-10 -1.10223e-10 -1.10011e-10 -1.09839e-10 -1.09708e-10 -1.09617e-10 -1.09561e-10 -1.09531e-10 -1.09492e-10 -1.09366e-10 -1.09093e-10 3.50064e-10 3.28833e-10 3.14306e-10 3.0008e-10 2.85702e-10 2.71361e-10 2.54168e-10 2.35888e-10 2.18948e-10 2.02212e-10 1.85883e-10 1.69936e-10 1.54364e-10 1.39139e-10 1.24238e-10 1.09642e-10 9.5334e-11 8.13003e-11 6.75327e-11 5.40278e-11 4.07868e-11 2.7813e-11 1.51138e-11 2.69999e-12 -9.41785e-12 -2.12331e-11 -3.27427e-11 -4.3909e-11 -5.47262e-11 -6.55067e-11 -7.14773e-11 -7.77596e-11 -8.26286e-11 -8.77439e-11 -9.25813e-11 -9.7144e-11 -1.01431e-10 -1.05438e-10 -1.09166e-10 -1.13048e-10 -1.15741e-10 -1.18596e-10 -1.2284e-10 -1.26921e-10 -1.30591e-10 -1.33702e-10 -1.36232e-10 -1.38118e-10 -1.39246e-10 -1.39455e-10 -1.39328e-10 -1.39074e-10 -1.37962e-10 -1.35849e-10 -1.34901e-10 -1.33481e-10 -1.32267e-10 -1.29908e-10 -1.27378e-10 -1.24595e-10 -1.21496e-10 -1.18138e-10 -1.14661e-10 -1.12288e-10 -1.10018e-10 -1.06818e-10 -1.0371e-10 -1.00365e-10 -9.67783e-11 -9.29499e-11 -8.88786e-11 -8.45587e-11 -8.03979e-11 -7.50905e-11 -7.00086e-11 -6.06465e-11 -5.11539e-11 -4.12509e-11 -3.0938e-11 -2.0246e-11 -9.17218e-12 2.28297e-12 1.41142e-11 2.63169e-11 3.88864e-11 5.18185e-11 6.51091e-11 7.8754e-11 9.27488e-11 1.07089e-10 1.21771e-10 1.36792e-10 1.52147e-10 1.67839e-10 1.83877e-10 2.00253e-10 2.17019e-10 2.34283e-10 2.52196e-10 2.69237e-10 2.83606e-10 2.98215e-10 3.12576e-10 3.27056e-10 3.48372e-10 2.36338e-10 2.36194e-10 2.35609e-10 -7.83433e-11 -7.91341e-11 -7.93735e-11 -7.94478e-11 -7.94843e-11 -7.95212e-11 -7.95818e-11 -7.96755e-11 -7.98042e-11 -7.9967e-11 -8.01613e-11 -8.03819e-11 -8.06167e-11 -8.08423e-11 -8.10228e-11 -8.1032e-11 -8.0533e-11 -1.13124e-10 -1.13272e-10 -1.13043e-10 -1.12726e-10 -1.12388e-10 -1.12058e-10 -1.11755e-10 -1.11488e-10 -1.11261e-10 -1.11073e-10 -1.10927e-10 -1.10821e-10 -1.1075e-10 -1.10701e-10 -1.10652e-10 -1.10542e-10 -1.10143e-10 3.46268e-10 3.29507e-10 3.14408e-10 2.99971e-10 2.85212e-10 2.71238e-10 2.53243e-10 2.39385e-10 2.17986e-10 2.01107e-10 1.84723e-10 1.68737e-10 1.53132e-10 1.37897e-10 1.23015e-10 1.08465e-10 9.42265e-11 8.02836e-11 6.66238e-11 5.32412e-11 4.01316e-11 2.72941e-11 1.47355e-11 2.46426e-12 -9.51391e-12 -2.11913e-11 -3.25629e-11 -4.36357e-11 -5.44324e-11 -6.52217e-11 -7.11503e-11 -7.52636e-11 -8.22655e-11 -8.73546e-11 -9.2167e-11 -9.6701e-11 -1.00958e-10 -1.04933e-10 -1.08629e-10 -1.11395e-10 -1.15178e-10 -1.18005e-10 -1.22068e-10 -1.26228e-10 -1.29877e-10 -1.32981e-10 -1.35511e-10 -1.37402e-10 -1.38562e-10 -1.38781e-10 -1.38692e-10 -1.38451e-10 -1.37418e-10 -1.35363e-10 -1.34468e-10 -1.33064e-10 -1.31876e-10 -1.29514e-10 -1.26987e-10 -1.24202e-10 -1.21103e-10 -1.17659e-10 -1.14302e-10 -1.11948e-10 -1.08723e-10 -1.06497e-10 -1.03408e-10 -1.00079e-10 -9.65037e-11 -9.26832e-11 -8.86148e-11 -8.42967e-11 -7.8194e-11 -7.48239e-11 -6.97566e-11 -6.02488e-11 -5.06913e-11 -4.07812e-11 -3.05006e-11 -1.98415e-11 -8.80296e-12 2.61237e-12 1.44004e-11 2.65567e-11 3.90761e-11 5.19542e-11 6.51873e-11 7.87715e-11 9.27025e-11 1.06975e-10 1.21585e-10 1.36528e-10 1.51804e-10 1.6741e-10 1.83345e-10 1.99612e-10 2.16299e-10 2.38555e-10 2.50994e-10 2.68357e-10 2.8185e-10 2.97145e-10 3.11335e-10 3.25729e-10 3.44166e-10 2.39337e-10 2.39098e-10 2.38653e-10 -7.54027e-11 -7.59665e-11 -7.62635e-11 -7.63854e-11 -7.64384e-11 -7.6498e-11 -7.65835e-11 -7.67011e-11 -7.68536e-11 -7.70404e-11 -7.72586e-11 -7.75022e-11 -7.77627e-11 -7.80195e-11 -7.82014e-11 -7.82217e-11 -7.79984e-11 -1.11037e-10 -1.11053e-10 -1.10909e-10 -1.10623e-10 -1.10301e-10 -1.09996e-10 -1.09718e-10 -1.09475e-10 -1.09271e-10 -1.09108e-10 -1.08986e-10 -1.08904e-10 -1.08857e-10 -1.08838e-10 -1.08806e-10 -1.08683e-10 -1.08456e-10 3.48505e-10 3.29013e-10 3.14334e-10 3.00036e-10 2.85578e-10 2.71029e-10 2.5394e-10 2.37137e-10 2.18593e-10 2.01829e-10 1.85493e-10 1.69528e-10 1.53944e-10 1.38715e-10 1.2382e-10 1.0924e-10 9.49569e-11 8.09558e-11 6.72272e-11 5.37667e-11 4.05738e-11 2.76499e-11 1.5002e-11 2.64024e-12 -9.42595e-12 -2.11912e-11 -3.26567e-11 -4.37837e-11 -5.45618e-11 -6.53992e-11 -7.13555e-11 -7.68681e-11 -8.2492e-11 -8.76022e-11 -9.24293e-11 -9.69819e-11 -1.01258e-10 -1.05254e-10 -1.08967e-10 -1.12462e-10 -1.15531e-10 -1.18383e-10 -1.22566e-10 -1.26636e-10 -1.30311e-10 -1.33418e-10 -1.35947e-10 -1.37835e-10 -1.38976e-10 -1.39188e-10 -1.39076e-10 -1.38831e-10 -1.3775e-10 -1.3566e-10 -1.34731e-10 -1.33318e-10 -1.32115e-10 -1.29754e-10 -1.27226e-10 -1.24443e-10 -1.21334e-10 -1.17974e-10 -1.14532e-10 -1.1216e-10 -1.0956e-10 -1.06698e-10 -1.036e-10 -1.0026e-10 -9.66774e-11 -9.28516e-11 -8.87824e-11 -8.4459e-11 -7.9612e-11 -7.49904e-11 -6.99144e-11 -6.04499e-11 -5.09577e-11 -4.10583e-11 -3.07508e-11 -2.00696e-11 -9.00836e-12 2.43301e-12 1.42492e-11 2.64354e-11 3.89871e-11 5.18999e-11 6.51697e-11 7.87928e-11 9.27645e-11 1.0708e-10 1.21736e-10 1.36728e-10 1.52054e-10 1.67715e-10 1.83718e-10 2.00041e-10 2.1676e-10 2.35801e-10 2.51863e-10 2.68628e-10 2.83021e-10 2.97759e-10 3.12052e-10 3.26428e-10 3.46628e-10 2.37431e-10 2.37222e-10 2.36726e-10 -7.72962e-11 -7.79892e-11 -7.82543e-11 -7.83489e-11 -7.83914e-11 -7.84366e-11 -7.85064e-11 -7.86088e-11 -7.87461e-11 -7.89176e-11 -7.91205e-11 -7.93493e-11 -7.95932e-11 -7.98304e-11 -8.00096e-11 -8.00155e-11 -7.96307e-11 -1.12384e-10 -1.1247e-10 -1.12278e-10 -1.11974e-10 -1.11641e-10 -1.1132e-10 -1.11026e-10 -1.10768e-10 -1.10549e-10 -1.10371e-10 -1.10233e-10 -1.10136e-10 -1.10073e-10 -1.10035e-10 -1.09992e-10 -1.09871e-10 -1.09544e-10 3.51015e-10 3.28847e-10 3.1429e-10 3.00102e-10 2.85668e-10 2.72009e-10 2.54181e-10 2.34974e-10 2.19234e-10 2.02486e-10 1.86159e-10 1.70231e-10 1.54669e-10 1.39448e-10 1.24543e-10 1.09937e-10 9.56111e-11 8.15538e-11 6.77577e-11 5.42203e-11 4.09435e-11 2.79324e-11 1.51951e-11 2.7422e-12 -9.41499e-12 -2.12677e-11 -3.28057e-11 -4.40087e-11 -5.48923e-11 -6.5589e-11 -7.15686e-11 -7.84293e-11 -8.27307e-11 -8.78512e-11 -9.2696e-11 -9.72663e-11 -1.01562e-10 -1.05577e-10 -1.09317e-10 -1.13489e-10 -1.15899e-10 -1.18757e-10 -1.2301e-10 -1.27149e-10 -1.30803e-10 -1.33918e-10 -1.36448e-10 -1.38332e-10 -1.39449e-10 -1.39654e-10 -1.39515e-10 -1.39254e-10 -1.38118e-10 -1.35988e-10 -1.35027e-10 -1.33602e-10 -1.3238e-10 -1.30024e-10 -1.27494e-10 -1.24711e-10 -1.21629e-10 -1.18236e-10 -1.1476e-10 -1.12384e-10 -1.10362e-10 -1.06909e-10 -1.03794e-10 -1.00445e-10 -9.68548e-11 -9.30244e-11 -8.89518e-11 -8.46332e-11 -8.0988e-11 -7.51658e-11 -7.00809e-11 -6.08337e-11 -5.13104e-11 -4.1398e-11 -3.10852e-11 -2.03855e-11 -9.30176e-12 2.16367e-12 1.40062e-11 2.62211e-11 3.88039e-11 5.17505e-11 6.50565e-11 7.87178e-11 9.27299e-11 1.07089e-10 1.2179e-10 1.36832e-10 1.5221e-10 1.67925e-10 1.83984e-10 2.00406e-10 2.17229e-10 2.33183e-10 2.52309e-10 2.70048e-10 2.83947e-10 2.98454e-10 3.12849e-10 3.27455e-10 3.49417e-10 2.35516e-10 2.35431e-10 2.34768e-10 -7.91279e-11 -7.99871e-11 -8.02097e-11 -8.02687e-11 -8.02995e-11 -8.03299e-11 -8.03836e-11 -8.04707e-11 -8.05929e-11 -8.07493e-11 -8.09371e-11 -8.11515e-11 -8.13797e-11 -8.15975e-11 -8.17781e-11 -8.17909e-11 -8.12132e-11 -1.13676e-10 -1.13867e-10 -1.13614e-10 -1.13287e-10 -1.12943e-10 -1.12606e-10 -1.12297e-10 -1.12024e-10 -1.11789e-10 -1.11596e-10 -1.11443e-10 -1.11331e-10 -1.11254e-10 -1.11196e-10 -1.11143e-10 -1.1104e-10 -1.10593e-10 3.46914e-10 3.29388e-10 3.14378e-10 2.99959e-10 2.85312e-10 2.71215e-10 2.53543e-10 2.38426e-10 2.18256e-10 2.01432e-10 1.85079e-10 1.69102e-10 1.53508e-10 1.38277e-10 1.2339e-10 1.08828e-10 9.4571e-11 8.0604e-11 6.69156e-11 5.35005e-11 4.03561e-11 2.74824e-11 1.48862e-11 2.57667e-12 -9.43889e-12 -2.11539e-11 -3.25681e-11 -4.36687e-11 -5.44565e-11 -6.52941e-11 -7.12339e-11 -7.59771e-11 -8.2356e-11 -8.74619e-11 -9.22785e-11 -9.68211e-11 -1.01086e-10 -1.05071e-10 -1.08768e-10 -1.11876e-10 -1.15322e-10 -1.18173e-10 -1.22241e-10 -1.26374e-10 -1.30034e-10 -1.33138e-10 -1.35667e-10 -1.37555e-10 -1.38706e-10 -1.38921e-10 -1.38821e-10 -1.38583e-10 -1.37533e-10 -1.35466e-10 -1.34557e-10 -1.33153e-10 -1.31962e-10 -1.29602e-10 -1.27076e-10 -1.24294e-10 -1.2119e-10 -1.17772e-10 -1.14404e-10 -1.12033e-10 -1.09101e-10 -1.06578e-10 -1.03491e-10 -1.00156e-10 -9.65779e-11 -9.27545e-11 -8.86877e-11 -8.436e-11 -7.88261e-11 -7.48907e-11 -6.98225e-11 -6.03072e-11 -5.07782e-11 -4.08694e-11 -3.05738e-11 -1.9904e-11 -8.85464e-12 2.57284e-12 1.43738e-11 2.65436e-11 3.90773e-11 5.19707e-11 6.52198e-11 7.88208e-11 9.27693e-11 1.0706e-10 1.2169e-10 1.36653e-10 1.5195e-10 1.67579e-10 1.83543e-10 1.99823e-10 2.1652e-10 2.37392e-10 2.51394e-10 2.68495e-10 2.82255e-10 2.973e-10 3.11532e-10 3.25922e-10 3.44893e-10 2.38514e-10 2.38269e-10 2.37829e-10 -7.62453e-11 -7.68426e-11 -7.71314e-11 -7.72438e-11 -7.72917e-11 -7.73451e-11 -7.74239e-11 -7.75349e-11 -7.76808e-11 -7.78609e-11 -7.80725e-11 -7.83096e-11 -7.8563e-11 -7.88119e-11 -7.89909e-11 -7.90005e-11 -7.87298e-11 -1.11636e-10 -1.11665e-10 -1.11507e-10 -1.11214e-10 -1.10887e-10 -1.10575e-10 -1.10291e-10 -1.10041e-10 -1.0983e-10 -1.09661e-10 -1.09532e-10 -1.09443e-10 -1.0939e-10 -1.09363e-10 -1.09325e-10 -1.09198e-10 -1.08943e-10 3.49676e-10 3.28861e-10 3.14311e-10 3.00072e-10 2.85683e-10 2.7123e-10 2.54127e-10 2.36197e-10 2.18857e-10 2.02118e-10 1.85787e-10 1.69836e-10 1.54261e-10 1.39035e-10 1.24135e-10 1.09543e-10 9.52406e-11 8.12149e-11 6.74569e-11 5.39631e-11 4.0734e-11 2.77727e-11 1.50863e-11 2.68542e-12 -9.41941e-12 -2.12222e-11 -3.27214e-11 -4.38766e-11 -5.46794e-11 -6.54796e-11 -7.14469e-11 -7.75366e-11 -8.25944e-11 -8.77084e-11 -9.25432e-11 -9.71033e-11 -1.01388e-10 -1.05392e-10 -1.09116e-10 -1.12902e-10 -1.15689e-10 -1.18543e-10 -1.22776e-10 -1.26847e-10 -1.30521e-10 -1.33631e-10 -1.3616e-10 -1.38047e-10 -1.39178e-10 -1.39388e-10 -1.39265e-10 -1.39014e-10 -1.3791e-10 -1.35803e-10 -1.34859e-10 -1.33441e-10 -1.32229e-10 -1.29869e-10 -1.2734e-10 -1.24557e-10 -1.21454e-10 -1.18101e-10 -1.14629e-10 -1.12256e-10 -1.09903e-10 -1.06788e-10 -1.03683e-10 -1.00339e-10 -9.6753e-11 -9.29252e-11 -8.88544e-11 -8.45337e-11 -8.02014e-11 -7.50655e-11 -6.99848e-11 -6.05921e-11 -5.11033e-11 -4.12024e-11 -3.08902e-11 -2.02009e-11 -9.13027e-12 2.32145e-12 1.4149e-11 2.63475e-11 3.89125e-11 5.18399e-11 6.51252e-11 7.87647e-11 9.27538e-11 1.07088e-10 1.21764e-10 1.36777e-10 1.52125e-10 1.67809e-10 1.83839e-10 2.00201e-10 2.16952e-10 2.34658e-10 2.52126e-10 2.6904e-10 2.83473e-10 2.98101e-10 3.12445e-10 3.26887e-10 3.47935e-10 2.36612e-10 2.3645e-10 2.35889e-10 -7.80817e-11 -7.88485e-11 -7.90941e-11 -7.91735e-11 -7.92117e-11 -7.92507e-11 -7.93136e-11 -7.94095e-11 -7.95403e-11 -7.97053e-11 -7.99018e-11 -8.01244e-11 -8.03614e-11 -8.05899e-11 -8.07701e-11 -8.07782e-11 -8.0307e-11 -1.12939e-10 -1.13072e-10 -1.12852e-10 -1.12538e-10 -1.12202e-10 -1.11874e-10 -1.11574e-10 -1.11309e-10 -1.11083e-10 -1.10898e-10 -1.10755e-10 -1.10651e-10 -1.10582e-10 -1.10535e-10 -1.10487e-10 -1.10375e-10 -1.09993e-10 3.48111e-10 3.29087e-10 3.14345e-10 3.00019e-10 2.85529e-10 2.71023e-10 2.5386e-10 2.37454e-10 2.18508e-10 2.0173e-10 1.85392e-10 1.69423e-10 1.53837e-10 1.38607e-10 1.23714e-10 1.09138e-10 9.48612e-11 8.08685e-11 6.71499e-11 5.37007e-11 4.05198e-11 2.76084e-11 1.49734e-11 2.6247e-12 -9.42874e-12 -2.11814e-11 -3.26347e-11 -4.37542e-11 -5.45299e-11 -6.53727e-11 -7.13251e-11 -7.66453e-11 -8.24579e-11 -8.7567e-11 -9.23915e-11 -9.69416e-11 -1.01215e-10 -1.05208e-10 -1.08917e-10 -1.12315e-10 -1.15479e-10 -1.1833e-10 -1.22489e-10 -1.26568e-10 -1.30241e-10 -1.33348e-10 -1.35877e-10 -1.37764e-10 -1.38908e-10 -1.39121e-10 -1.39012e-10 -1.3877e-10 -1.37697e-10 -1.35612e-10 -1.34688e-10 -1.33277e-10 -1.32076e-10 -1.29716e-10 -1.27188e-10 -1.24406e-10 -1.21296e-10 -1.17927e-10 -1.145e-10 -1.12128e-10 -1.09445e-10 -1.06668e-10 -1.03573e-10 -1.00234e-10 -9.66524e-11 -9.28272e-11 -8.87586e-11 -8.44342e-11 -7.94155e-11 -7.49654e-11 -6.98912e-11 -6.04092e-11 -5.09113e-11 -4.10108e-11 -3.07056e-11 -2.00272e-11 -8.96899e-12 2.46892e-12 1.42813e-11 2.64634e-11 3.90106e-11 5.19186e-11 6.51832e-11 7.88008e-11 9.27667e-11 1.07076e-10 1.21725e-10 1.3671e-10 1.52029e-10 1.67682e-10 1.83676e-10 1.99987e-10 2.16699e-10 2.3619e-10 2.51761e-10 2.68546e-10 2.82853e-10 2.97643e-10 3.11922e-10 3.26289e-10 3.46194e-10 2.37703e-10 2.37482e-10 2.37004e-10 -7.70339e-11 -7.77024e-11 -7.79739e-11 -7.80732e-11 -7.81171e-11 -7.81644e-11 -7.82365e-11 -7.8341e-11 -7.84804e-11 -7.86541e-11 -7.88592e-11 -7.909e-11 -7.93363e-11 -7.95765e-11 -7.97554e-11 -7.97614e-11 -7.94055e-11 -1.12198e-10 -1.12268e-10 -1.12086e-10 -1.11784e-10 -1.11453e-10 -1.11134e-10 -1.10843e-10 -1.10587e-10 -1.1037e-10 -1.10194e-10 -1.10059e-10 -1.09963e-10 -1.09903e-10 -1.09868e-10 -1.09825e-10 -1.09702e-10 -1.09394e-10 3.50835e-10 3.2881e-10 3.14298e-10 3.00099e-10 2.85697e-10 2.71746e-10 2.54199e-10 2.35276e-10 2.19137e-10 2.02396e-10 1.86069e-10 1.70134e-10 1.54569e-10 1.39346e-10 1.24442e-10 1.09839e-10 9.55193e-11 8.14698e-11 6.76831e-11 5.41564e-11 4.08916e-11 2.78929e-11 1.51682e-11 2.72838e-12 -9.41564e-12 -2.12558e-11 -3.27848e-11 -4.39752e-11 -5.48323e-11 -6.55614e-11 -7.15382e-11 -7.82059e-11 -8.26967e-11 -8.78153e-11 -9.26577e-11 -9.72254e-11 -1.01518e-10 -1.05531e-10 -1.09266e-10 -1.13342e-10 -1.15847e-10 -1.18703e-10 -1.22957e-10 -1.27071e-10 -1.30732e-10 -1.33846e-10 -1.36376e-10 -1.38261e-10 -1.39382e-10 -1.39588e-10 -1.39453e-10 -1.39194e-10 -1.38067e-10 -1.35942e-10 -1.34985e-10 -1.33562e-10 -1.32342e-10 -1.29985e-10 -1.27455e-10 -1.24672e-10 -1.21583e-10 -1.18206e-10 -1.14727e-10 -1.12352e-10 -1.10247e-10 -1.06878e-10 -1.03766e-10 -1.00419e-10 -9.68292e-11 -9.29995e-11 -8.89272e-11 -8.46084e-11 -8.07912e-11 -7.51407e-11 -7.00567e-11 -6.0767e-11 -5.12576e-11 -4.13487e-11 -3.10355e-11 -2.03383e-11 -9.25792e-12 2.20408e-12 1.40429e-11 2.62537e-11 3.88321e-11 5.17739e-11 6.50747e-11 7.87305e-11 9.27369e-11 1.0709e-10 1.21785e-10 1.36819e-10 1.5219e-10 1.67897e-10 1.8395e-10 2.00355e-10 2.17158e-10 2.33546e-10 2.5229e-10 2.69741e-10 2.8383e-10 2.98447e-10 3.12837e-10 3.27417e-10 3.49247e-10 2.35791e-10 2.35685e-10 2.35049e-10 -7.88664e-11 -7.97036e-11 -7.99313e-11 -7.99953e-11 -8.00282e-11 -8.00608e-11 -8.01168e-11 -8.02061e-11 -8.03305e-11 -8.0489e-11 -8.0679e-11 -8.08954e-11 -8.11258e-11 -8.13461e-11 -8.15268e-11 -8.15385e-11 -8.0986e-11 -1.13492e-10 -1.1367e-10 -1.13424e-10 -1.131e-10 -1.12759e-10 -1.12424e-10 -1.12117e-10 -1.11846e-10 -1.11614e-10 -1.11422e-10 -1.11272e-10 -1.11162e-10 -1.11086e-10 -1.11031e-10 -1.10979e-10 -1.10875e-10 -1.10443e-10 3.46729e-10 3.29365e-10 3.14386e-10 2.99942e-10 2.8525e-10 2.7135e-10 2.53403e-10 2.38762e-10 2.1817e-10 2.01332e-10 1.84971e-10 1.68993e-10 1.53397e-10 1.38165e-10 1.23281e-10 1.08723e-10 9.44732e-11 8.05149e-11 6.68367e-11 5.34331e-11 4.03009e-11 2.74398e-11 1.48566e-11 2.56019e-12 -9.44285e-12 -2.11454e-11 -3.25456e-11 -4.36408e-11 -5.444e-11 -6.52681e-11 -7.12036e-11 -7.57543e-11 -8.23222e-11 -8.7427e-11 -9.2241e-11 -9.67811e-11 -1.01043e-10 -1.05026e-10 -1.08718e-10 -1.11729e-10 -1.1527e-10 -1.1812e-10 -1.22151e-10 -1.26313e-10 -1.29965e-10 -1.33069e-10 -1.35598e-10 -1.37485e-10 -1.38639e-10 -1.38853e-10 -1.38757e-10 -1.38521e-10 -1.37479e-10 -1.35417e-10 -1.34513e-10 -1.33111e-10 -1.31924e-10 -1.29564e-10 -1.27039e-10 -1.24256e-10 -1.21157e-10 -1.17715e-10 -1.14373e-10 -1.12001e-10 -1.08987e-10 -1.06549e-10 -1.03464e-10 -1.0013e-10 -9.65532e-11 -9.27304e-11 -8.86642e-11 -8.43354e-11 -7.86295e-11 -7.48658e-11 -6.97999e-11 -6.02801e-11 -5.07356e-11 -4.08227e-11 -3.05313e-11 -1.98643e-11 -8.81778e-12 2.60621e-12 1.44033e-11 2.6569e-11 3.90982e-11 5.19867e-11 6.52307e-11 7.88262e-11 9.27688e-11 1.07054e-10 1.21676e-10 1.36633e-10 1.51922e-10 1.67543e-10 1.83496e-10 1.9977e-10 2.16459e-10 2.37812e-10 2.51239e-10 2.6855e-10 2.82033e-10 2.97281e-10 3.11519e-10 3.2589e-10 3.44723e-10 2.38781e-10 2.38536e-10 2.38098e-10 -7.59814e-11 -7.65567e-11 -7.68502e-11 -7.69664e-11 -7.70158e-11 -7.70712e-11 -7.71522e-11 -7.72653e-11 -7.74133e-11 -7.75956e-11 -7.78093e-11 -7.80486e-11 -7.83043e-11 -7.8556e-11 -7.87355e-11 -7.87479e-11 -7.85043e-11 -1.11447e-10 -1.11464e-10 -1.11314e-10 -1.11023e-10 -1.10698e-10 -1.10388e-10 -1.10105e-10 -1.09858e-10 -1.0965e-10 -1.09482e-10 -1.09356e-10 -1.09269e-10 -1.09218e-10 -1.09194e-10 -1.09157e-10 -1.0903e-10 -1.08792e-10 3.49287e-10 3.28901e-10 3.14317e-10 3.00062e-10 2.85655e-10 2.71132e-10 2.54074e-10 2.36508e-10 2.18767e-10 2.02022e-10 1.85691e-10 1.69734e-10 1.54156e-10 1.38929e-10 1.24031e-10 1.09443e-10 9.51465e-11 8.1129e-11 6.73807e-11 5.38979e-11 4.06809e-11 2.7732e-11 1.50584e-11 2.6706e-12 -9.42129e-12 -2.12116e-11 -3.27e-11 -4.38449e-11 -5.46365e-11 -6.54526e-11 -7.14164e-11 -7.73137e-11 -8.25603e-11 -8.76729e-11 -9.25052e-11 -9.70628e-11 -1.01344e-10 -1.05346e-10 -1.09066e-10 -1.12755e-10 -1.15636e-10 -1.18489e-10 -1.22709e-10 -1.26776e-10 -1.3045e-10 -1.3356e-10 -1.36089e-10 -1.37976e-10 -1.39111e-10 -1.39322e-10 -1.39202e-10 -1.38953e-10 -1.37857e-10 -1.35755e-10 -1.34816e-10 -1.334e-10 -1.32191e-10 -1.2983e-10 -1.27302e-10 -1.24519e-10 -1.21413e-10 -1.18061e-10 -1.14597e-10 -1.12224e-10 -1.09789e-10 -1.06758e-10 -1.03655e-10 -1.00313e-10 -9.67277e-11 -9.29006e-11 -8.88303e-11 -8.45088e-11 -8.00049e-11 -7.50404e-11 -6.99612e-11 -6.05413e-11 -5.10537e-11 -4.11542e-11 -3.08431e-11 -2.01564e-11 -9.08899e-12 2.35928e-12 1.4183e-11 2.63775e-11 3.8938e-11 5.18605e-11 6.51407e-11 7.87747e-11 9.2758e-11 1.07086e-10 1.21755e-10 1.36761e-10 1.52102e-10 1.67779e-10 1.83799e-10 2.00148e-10 2.16886e-10 2.35035e-10 2.52046e-10 2.68874e-10 2.8333e-1