<?xml version="1.0"?>
<VTKFile byte_order="LittleEndian" type="UnstructuredGrid" version="0.1">
<UnstructuredGrid>
<Piece NumberOfCells="2320" NumberOfPoints="2414">
<PointData>
<DataArray Name="Warping_X" format="ascii" type="Float64">
1.74026e-10 1.5725e-10 1.46669e-10 1.36465e-10 1.26241e-10 1.16628e-10 1.0443e-10 9.11811e-11 8.11312e-11 7.02823e-11 5.99644e-11 5.01481e-11 4.08043e-11 3.19127e-11 2.34578e-11 1.54268e-11 7.81067e-12 6.05139e-13 -6.18996e-12 -1.25706e-11 -1.85291e-11 -2.40557e-11 -2.91394e-11 -3.37662e-11 -3.7922e-11 -4.15931e-11 -4.47646e-11 -4.7422e-11 -4.95534e-11 -5.11411e-11 -5.19362e-11 -5.23934e-11 -5.24281e-11 -5.21447e-11 -5.15002e-11 -5.04919e-11 -4.91148e-11 -4.73651e-11 -4.52299e-11 -4.2019e-11 -3.98071e-11 -3.6511e-11 -3.11411e-11 -2.47169e-11 -1.76448e-11 -9.98844e-12 -1.79421e-12 6.89196e-12 1.60151e-11 2.06576e-11 2.51804e-11 2.72838e-11 2.91076e-11 2.64874e-11 2.40844e-11 1.91814e-11 1.42878e-11 4.83575e-12 -4.02745e-12 -1.22952e-11 -1.99297e-11 -2.68747e-11 -3.27427e-11 -3.63428e-11 -3.87703e-11 -4.23053e-11 -4.46944e-11 -4.67037e-11 -4.8351e-11 -4.96453e-11 -5.05967e-11 -5.12099e-11 -5.14403e-11 -5.14675e-11 -5.10978e-11 -5.01686e-11 -4.87196e-11 -4.67577e-11 -4.42874e-11 -4.13154e-11 -3.78486e-11 -3.38942e-11 -2.94583e-11 -2.45467e-11 -1.91645e-11 -1.33158e-11 -7.00505e-12 -2.35849e-13 6.98821e-12 1.46642e-11 2.27894e-11 3.1362e-11 4.03803e-11 4.98441e-11 5.97588e-11 7.0142e-11 8.10266e-11 9.11416e-11 1.04412e-10 1.16498e-10 1.26242e-10 1.36492e-10 1.4683e-10 1.57476e-10 1.73948e-10 9.2054e-11 9.23219e-11 9.21312e-11 -4.97961e-11 -4.75811e-11 -4.56682e-11 -4.40396e-11 -4.26994e-11 -4.16437e-11 -4.08708e-11 -4.03806e-11 -4.01733e-11 -4.02489e-11 -4.06081e-11 -4.12513e-11 -4.21798e-11 -4.33971e-11 -4.49101e-11 -4.67205e-11 -4.88689e-11 -3.83693e-11 -3.49754e-11 -3.22557e-11 -2.99713e-11 -2.8092e-11 -2.66012e-11 -2.54847e-11 -2.4738e-11 -2.43602e-11 -2.4351e-11 -2.47115e-11 -2.54438e-11 -2.65536e-11 -2.80576e-11 -2.99763e-11 -3.23483e-11 -3.54356e-11 1.71367e-10 1.57786e-10 1.46967e-10 1.36611e-10 1.26385e-10 1.16238e-10 1.04345e-10 9.353e-11 8.07104e-11 6.98437e-11 5.95232e-11 4.96949e-11 4.03612e-11 3.15017e-11 2.31002e-11 1.51425e-11 7.61676e-12 5.14682e-13 -6.16746e-12 -1.24287e-11 -1.82648e-11 -2.36698e-11 -2.86342e-11 -3.31456e-11 -3.71925e-11 -4.07633e-11 -4.38447e-11 -4.64178e-11 -4.84804e-11 -5.05899e-11 -5.13753e-11 -5.17535e-11 -5.18688e-11 -5.15814e-11 -5.09347e-11 -4.99306e-11 -4.85634e-11 -4.68299e-11 -4.47193e-11 -4.23332e-11 -3.93646e-11 -3.60982e-11 -3.07448e-11 -2.44436e-11 -1.74821e-11 -1.00232e-11 -2.09922e-12 6.22196e-12 1.4903e-11 1.9208e-11 2.34161e-11 2.52592e-11 2.6938e-11 2.44674e-11 2.23293e-11 1.77319e-11 1.31592e-11 4.13898e-12 -4.35667e-12 -1.23481e-11 -1.9815e-11 -2.66021e-11 -3.24043e-11 -3.59591e-11 -3.92628e-11 -4.18335e-11 -4.41955e-11 -4.61875e-11 -4.78244e-11 -4.91138e-11 -5.00663e-11 -5.06816e-11 -5.09584e-11 -5.09259e-11 -5.05584e-11 -4.90871e-11 -4.7668e-11 -4.57512e-11 -4.33283e-11 -4.04097e-11 -3.70023e-11 -3.31115e-11 -2.8743e-11 -2.39022e-11 -1.8594e-11 -1.28223e-11 -6.59102e-12 9.66238e-14 7.23722e-12 1.48276e-11 2.28652e-11 3.13476e-11 4.02738e-11 4.96446e-11 5.94646e-11 6.97203e-11 8.04753e-11 9.3608e-11 1.03724e-10 1.15215e-10 1.25012e-10 1.35552e-10 1.45755e-10 1.5616e-10 1.70596e-10 9.38681e-11 9.40502e-11 9.3991e-11 -4.9867e-11 -4.76488e-11 -4.57398e-11 -4.41272e-11 -4.28004e-11 -4.17574e-11 -4.09976e-11 -4.05206e-11 -4.03263e-11 -4.04152e-11 -4.07874e-11 -4.14438e-11 -4.23858e-11 -4.36157e-11 -4.51387e-11 -4.69736e-11 -4.91464e-11 -3.95896e-11 -3.62819e-11 -3.35304e-11 -3.12579e-11 -2.93973e-11 -2.79202e-11 -2.68179e-11 -2.60859e-11 -2.57228e-11 -2.57282e-11 -2.61033e-11 -2.68507e-11 -2.7976e-11 -2.949e-11 -3.14238e-11 -3.38579e-11 -3.68852e-11 1.73293e-10 1.57364e-10 1.46781e-10 1.36533e-10 1.26346e-10 1.16399e-10 1.04462e-10 9.18955e-11 8.09598e-11 7.01221e-11 5.97978e-11 4.99733e-11 4.06315e-11 3.17503e-11 2.33134e-11 1.53077e-11 7.72329e-12 5.54337e-13 -6.20061e-12 -1.25386e-11 -1.84532e-11 -2.3936e-11 -2.89766e-11 -3.35615e-11 -3.76775e-11 -4.13121e-11 -4.44504e-11 -4.70749e-11 -4.91788e-11 -5.0939e-11 -5.17306e-11 -5.2167e-11 -5.22223e-11 -5.19387e-11 -5.1293e-11 -5.02864e-11 -4.89125e-11 -4.71697e-11 -4.50404e-11 -4.2088e-11 -3.9643e-11 -3.63565e-11 -3.10137e-11 -2.46597e-11 -1.76182e-11 -1.00252e-11 -1.91484e-12 6.66321e-12 1.56608e-11 2.02084e-11 2.46462e-11 2.66576e-11 2.84416e-11 2.58635e-11 2.35539e-11 1.87337e-11 1.39299e-11 4.5996e-12 -4.15456e-12 -1.23373e-11 -1.99242e-11 -2.67865e-11 -3.26154e-11 -3.61995e-11 -3.8903e-11 -4.21289e-11 -4.45125e-11 -4.65142e-11 -4.81581e-11 -4.94504e-11 -5.04027e-11 -5.10151e-11 -5.12652e-11 -5.12686e-11 -5.09e-11 -4.97906e-11 -4.83526e-11 -4.64089e-11 -4.39565e-11 -4.1004e-11 -3.75592e-11 -3.36282e-11 -2.9217e-11 -2.43312e-11 -1.89758e-11 -1.31551e-11 -6.87313e-12 -1.33386e-13 7.06057e-12 1.47057e-11 2.27995e-11 3.13397e-11 4.0325e-11 4.97561e-11 5.96396e-11 6.99791e-11 8.08069e-11 9.18845e-11 1.04202e-10 1.15985e-10 1.25894e-10 1.36244e-10 1.46555e-10 1.57104e-10 1.73013e-10 9.26069e-11 9.28499e-11 9.26946e-11 -4.98217e-11 -4.76065e-11 -4.56958e-11 -4.40715e-11 -4.27354e-11 -4.16837e-11 -4.09147e-11 -4.04285e-11 -4.02252e-11 -4.03049e-11 -4.0668e-11 -4.13153e-11 -4.22478e-11 -4.34691e-11 -4.49856e-11 -4.68021e-11 -4.89589e-11 -3.87518e-11 -3.53753e-11 -3.26517e-11 -3.03705e-11 -2.84962e-11 -2.70097e-11 -2.58975e-11 -2.51553e-11 -2.47819e-11 -2.47772e-11 -2.51422e-11 -2.58791e-11 -2.69936e-11 -2.85015e-11 -3.04252e-11 -3.28112e-11 -3.5894e-11 1.70546e-10 1.57979e-10 1.47068e-10 1.36612e-10 1.26315e-10 1.1653e-10 1.04118e-10 9.45094e-11 8.05655e-11 6.96634e-11 5.93331e-11 4.95109e-11 4.01837e-11 3.1338e-11 2.29588e-11 1.50305e-11 7.53962e-12 4.7677e-13 -6.16307e-12 -1.238e-11 -1.81714e-11 -2.35322e-11 -2.84534e-11 -3.29234e-11 -3.69316e-11 -4.04664e-11 -4.35159e-11 -4.60649e-11 -4.81035e-11 -5.03927e-11 -5.11739e-11 -5.15199e-11 -5.16688e-11 -5.13795e-11 -5.07324e-11 -4.97297e-11 -4.83664e-11 -4.66378e-11 -4.45385e-11 -4.24737e-11 -3.92103e-11 -3.59448e-11 -3.06789e-11 -2.43334e-11 -1.74225e-11 -1.0019e-11 -2.17338e-12 6.03766e-12 1.45814e-11 1.87789e-11 2.28849e-11 2.46201e-11 2.62498e-11 2.383e-11 2.18005e-11 1.73017e-11 1.2831e-11 3.94729e-12 -4.43853e-12 -1.23498e-11 -1.97487e-11 -2.65736e-11 -3.22759e-11 -3.5827e-11 -3.94684e-11 -4.16674e-11 -4.40165e-11 -4.60034e-11 -4.7636e-11 -4.8924e-11 -4.98763e-11 -5.0493e-11 -5.07852e-11 -5.07318e-11 -5.03655e-11 -4.87054e-11 -4.73026e-11 -4.53965e-11 -4.299e-11 -4.00909e-11 -3.67045e-11 -3.28365e-11 -2.84923e-11 -2.36771e-11 -1.83956e-11 -1.26519e-11 -6.44949e-12 2.08409e-13 7.31854e-12 1.48777e-11 2.28831e-11 3.13325e-11 4.02254e-11 4.9561e-11 5.93392e-11 6.95611e-11 8.02835e-11 9.46766e-11 1.03303e-10 1.15186e-10 1.24437e-10 1.35294e-10 1.45488e-10 1.55862e-10 1.69638e-10 9.45748e-11 9.47603e-11 9.47097e-11 -4.98809e-11 -4.76619e-11 -4.57547e-11 -4.41486e-11 -4.28272e-11 -4.17893e-11 -4.10347e-11 -4.05629e-11 -4.03739e-11 -4.04679e-11 -4.08454e-11 -4.1507e-11 -4.24543e-11 -4.3689e-11 -4.52161e-11 -4.70602e-11 -4.92402e-11 -4.0058e-11 -3.67846e-11 -3.40217e-11 -3.17557e-11 -2.99029e-11 -2.84315e-11 -2.73348e-11 -2.66088e-11 -2.62514e-11 -2.62627e-11 -2.66436e-11 -2.73968e-11 -2.85279e-11 -3.00454e-11 -3.1985e-11 -3.44384e-11 -3.74341e-11 1.72199e-10 1.57555e-10 1.46883e-10 1.36588e-10 1.26402e-10 1.16177e-10 1.04441e-10 9.28218e-11 8.08137e-11 6.99708e-11 5.96494e-11 4.98212e-11 4.04833e-11 3.16142e-11 2.31969e-11 1.52182e-11 7.66686e-12 5.35843e-13 -6.17769e-12 -1.2472e-11 -1.83417e-11 -2.378e-11 -2.87769e-11 -3.33196e-11 -3.73959e-11 -4.0994e-11 -4.40995e-11 -4.66934e-11 -4.87734e-11 -5.07389e-11 -5.1527e-11 -5.19301e-11 -5.20198e-11 -5.17339e-11 -5.10876e-11 -5.00825e-11 -4.87124e-11 -4.6975e-11 -4.48562e-11 -4.2228e-11 -3.94831e-11 -3.62086e-11 -3.08392e-11 -2.45412e-11 -1.75401e-11 -1.00245e-11 -2.02182e-12 6.40886e-12 1.52254e-11 1.96349e-11 2.39424e-11 2.58584e-11 2.75825e-11 2.50655e-11 2.28532e-11 1.81596e-11 1.34875e-11 4.33378e-12 -4.27149e-12 -1.23442e-11 -1.98678e-11 -2.66601e-11 -3.24945e-11 -3.60613e-11 -3.91085e-11 -4.19593e-11 -4.43308e-11 -4.63269e-11 -4.79668e-11 -4.92574e-11 -5.02098e-11 -5.0824e-11 -5.10893e-11 -5.10722e-11 -5.07042e-11 -4.93826e-11 -4.79546e-11 -4.60272e-11 -4.35919e-11 -4.06587e-11 -3.72353e-11 -3.33274e-11 -2.89406e-11 -2.40806e-11 -1.87522e-11 -1.29596e-11 -6.70655e-12 3.41584e-15 7.16688e-12 1.47807e-11 2.28424e-11 3.13496e-11 4.03009e-11 4.9698e-11 5.95459e-11 6.98363e-11 8.06136e-11 9.28552e-11 1.03967e-10 1.15426e-10 1.25431e-10 1.35852e-10 1.46097e-10 1.56532e-10 1.71628e-10 9.33289e-11 9.35315e-11 9.34374e-11 -4.98507e-11 -4.76336e-11 -4.57238e-11 -4.41061e-11 -4.27754e-11 -4.17286e-11 -4.09649e-11 -4.04839e-11 -4.02858e-11 -4.03707e-11 -4.0739e-11 -4.13915e-11 -4.23294e-11 -4.35557e-11 -4.5076e-11 -4.6903e-11 -4.90696e-11 -3.92338e-11 -3.58963e-11 -3.31569e-11 -3.08802e-11 -2.90136e-11 -2.75325e-11 -2.64259e-11 -2.56895e-11 -2.5322e-11 -2.53231e-11 -2.56939e-11 -2.64368e-11 -2.75575e-11 -2.90691e-11 -3.09986e-11 -3.34128e-11 -3.64658e-11 1.73812e-10 1.57363e-10 1.46712e-10 1.36492e-10 1.26242e-10 1.16626e-10 1.04402e-10 9.13024e-11 8.10781e-11 7.02193e-11 5.98947e-11 5.00753e-11 4.07315e-11 3.18421e-11 2.33914e-11 1.53664e-11 7.75783e-12 5.60907e-13 -6.22477e-12 -1.25954e-11 -1.85436e-11 -2.40599e-11 -2.91334e-11 -3.37502e-11 -3.78965e-11 -4.15586e-11 -4.47218e-11 -4.73713e-11 -4.9495e-11 -5.10902e-11 -5.18845e-11 -5.23398e-11 -5.2376e-11 -5.20932e-11 -5.14482e-11 -5.04404e-11 -4.9064e-11 -4.73164e-11 -4.51814e-11 -4.20188e-11 -3.97632e-11 -3.64784e-11 -3.11274e-11 -2.47167e-11 -1.76612e-11 -1.00272e-11 -1.86076e-12 6.79327e-12 1.58836e-11 2.05019e-11 2.50054e-11 2.7097e-11 2.89146e-11 2.63021e-11 2.39113e-11 1.90272e-11 1.4156e-11 4.73584e-12 -4.09552e-12 -1.23357e-11 -1.99486e-11 -2.6876e-11 -3.27191e-11 -3.63032e-11 -3.87856e-11 -4.22597e-11 -4.46492e-11 -4.66561e-11 -4.83026e-11 -4.95964e-11 -5.05482e-11 -5.11604e-11 -5.13971e-11 -5.14174e-11 -5.10479e-11 -5.0108e-11 -4.86628e-11 -4.67054e-11 -4.42399e-11 -4.1273e-11 -3.78119e-11 -3.38635e-11 -2.94338e-11 -2.45287e-11 -1.9153e-11 -1.33113e-11 -7.00749e-12 -2.45404e-13 6.97144e-12 1.46401e-11 2.27579e-11 3.13229e-11 4.03338e-11 4.97902e-11 5.96986e-11 7.00767e-11 8.09579e-11 9.12669e-11 1.0433e-10 1.16408e-10 1.26129e-10 1.36376e-10 1.46705e-10 1.57342e-10 1.73638e-10 9.21495e-11 9.24172e-11 9.22268e-11 -4.98002e-11 -4.75857e-11 -4.56735e-11 -4.40456e-11 -4.27061e-11 -4.16511e-11 -4.08789e-11 -4.03894e-11 -4.01827e-11 -4.02591e-11 -4.0619e-11 -4.12629e-11 -4.2192e-11 -4.34101e-11 -4.49238e-11 -4.67349e-11 -4.88845e-11 -3.84384e-11 -3.50444e-11 -3.23257e-11 -3.00421e-11 -2.81636e-11 -2.66736e-11 -2.55578e-11 -2.48119e-11 -2.44349e-11 -2.44265e-11 -2.47878e-11 -2.55209e-11 -2.66315e-11 -2.81363e-11 -3.00559e-11 -3.24286e-11 -3.55189e-11 1.71086e-10 1.57882e-10 1.46996e-10 1.36615e-10 1.26365e-10 1.16303e-10 1.04296e-10 9.37699e-11 8.06758e-11 6.97993e-11 5.94782e-11 4.96505e-11 4.03184e-11 3.14622e-11 2.30662e-11 1.51157e-11 7.59858e-12 5.06242e-13 -6.16537e-12 -1.24156e-11 -1.82405e-11 -2.36345e-11 -2.8588e-11 -3.3089e-11 -3.71261e-11 -4.0688e-11 -4.37614e-11 -4.6328e-11 -4.83848e-11 -5.05405e-11 -5.13248e-11 -5.16949e-11 -5.18187e-11 -5.15308e-11 -5.0884e-11 -4.98802e-11 -4.8514e-11 -4.67817e-11 -4.4674e-11 -4.23684e-11 -3.93254e-11 -3.60615e-11 -3.07204e-11 -2.44092e-11 -1.74629e-11 -1.00226e-11 -2.12447e-12 6.16043e-12 1.47964e-11 1.90663e-11 2.3241e-11 2.50595e-11 2.6723e-11 2.42681e-11 2.2155e-11 1.75899e-11 1.30504e-11 4.07495e-12 -4.38452e-12 -1.23493e-11 -1.97952e-11 -2.659e-11 -3.23743e-11 -3.59254e-11 -3.93143e-11 -4.17918e-11 -4.41506e-11 -4.61413e-11 -4.77772e-11 -4.90662e-11 -5.00186e-11 -5.06343e-11 -5.09149e-11 -5.08773e-11 -5.051e-11 -4.89904e-11 -4.75748e-11 -4.56611e-11 -4.32423e-11 -4.03286e-11 -3.69264e-11 -3.30413e-11 -2.8679e-11 -2.38446e-11 -1.8543e-11 -1.27784e-11 -6.5543e-12 1.25907e-13 7.25889e-12 1.48415e-11 2.2871e-11 3.13452e-11 4.0263e-11 4.96249e-11 5.94353e-11 6.96805e-11 8.04293e-11 9.38657e-11 1.0363e-10 1.15187e-10 1.24852e-10 1.35452e-10 1.45641e-10 1.56047e-10 1.70254e-10 9.40468e-11 9.42252e-11 9.41739e-11 -4.98713e-11 -4.76529e-11 -4.57442e-11 -4.41332e-11 -4.28078e-11 -4.17661e-11 -4.10076e-11 -4.05319e-11 -4.03389e-11 -4.0429e-11 -4.08026e-11 -4.14603e-11 -4.24036e-11 -4.36347e-11 -4.51587e-11 -4.69961e-11 -4.91707e-11 -3.97072e-11 -3.6409e-11 -3.36539e-11 -3.13829e-11 -2.95244e-11 -2.80487e-11 -2.69477e-11 -2.62173e-11 -2.58556e-11 -2.58625e-11 -2.6239e-11 -2.69878e-11 -2.81147e-11 -2.96295e-11 -3.15647e-11 -3.40046e-11 -3.70235e-11 1.73021e-10 1.57399e-10 1.46805e-10 1.36548e-10 1.26371e-10 1.16307e-10 1.04471e-10 9.2125e-11 8.09221e-11 7.00864e-11 5.97628e-11 4.9937e-11 4.0596e-11 3.17178e-11 2.32856e-11 1.52865e-11 7.7103e-12 5.50756e-13 -6.19388e-12 -1.2521e-11 -1.84243e-11 -2.3896e-11 -2.89256e-11 -3.35e-11 -3.7606e-11 -4.12314e-11 -4.43614e-11 -4.69781e-11 -4.90758e-11 -5.08888e-11 -5.16795e-11 -5.21076e-11 -5.21716e-11 -5.18873e-11 -5.12415e-11 -5.02352e-11 -4.88623e-11 -4.71209e-11 -4.49942e-11 -4.2123e-11 -3.96028e-11 -3.63194e-11 -3.09647e-11 -2.46314e-11 -1.75986e-11 -1.00251e-11 -1.94198e-12 6.59909e-12 1.55514e-11 2.00646e-11 2.447e-11 2.64577e-11 2.82269e-11 2.56639e-11 2.33785e-11 1.85898e-11 1.38189e-11 4.53252e-12 -4.18415e-12 -1.23391e-11 -1.99116e-11 -2.67495e-11 -3.25851e-11 -3.61648e-11 -3.89544e-11 -4.20863e-11 -4.44669e-11 -4.64672e-11 -4.81101e-11 -4.9402e-11 -5.03543e-11 -5.09672e-11 -5.12211e-11 -5.12193e-11 -5.08509e-11 -4.9687e-11 -4.82514e-11 -4.6312e-11 -4.38639e-11 -4.09163e-11 -3.74768e-11 -3.35516e-11 -2.91465e-11 -2.42672e-11 -1.89186e-11 -1.31049e-11 -6.83014e-12 -9.78416e-14 7.08849e-12 1.47258e-11 2.28115e-11 3.13435e-11 4.03203e-11 4.97429e-11 5.96178e-11 6.99447e-11 8.07576e-11 9.21238e-11 1.04156e-10 1.15812e-10 1.2579e-10 1.36146e-10 1.46441e-10 1.56952e-10 1.72665e-10 9.27877e-11 9.30193e-11 9.28806e-11 -4.98297e-11 -4.7614e-11 -4.57035e-11 -4.40809e-11 -4.27461e-11 -4.16956e-11 -4.0928e-11 -4.04431e-11 -4.0241e-11 -4.0322e-11 -4.06865e-11 -4.1335e-11 -4.22689e-11 -4.34914e-11 -4.5009e-11 -4.6828e-11 -4.89875e-11 -3.88732e-11 -3.5506e-11 -3.27788e-11 -3.04986e-11 -2.86262e-11 -2.7141e-11 -2.60302e-11 -2.52895e-11 -2.49176e-11 -2.49143e-11 -2.52807e-11 -2.60191e-11 -2.71352e-11 -2.86441e-11 -3.05693e-11 -3.29622e-11 -3.60384e-11 1.70353e-10 1.58118e-10 1.47091e-10 1.36675e-10 1.26334e-10 1.16476e-10 1.04083e-10 9.47134e-11 8.05144e-11 6.95957e-11 5.92595e-11 4.94351e-11 4.01079e-11 3.12645e-11 2.28897e-11 1.49674e-11 7.48404e-12 4.29785e-13 -6.20068e-12 -1.24077e-11 -1.81889e-11 -2.35396e-11 -2.84506e-11 -3.29108e-11 -3.69096e-11 -4.04356e-11 -4.34768e-11 -4.60184e-11 -4.80502e-11 -5.03425e-11 -5.11239e-11 -5.14616e-11 -5.16191e-11 -5.13293e-11 -5.06821e-11 -4.96798e-11 -4.83169e-11 -4.65916e-11 -4.44873e-11 -4.25359e-11 -3.91626e-11 -3.59209e-11 -3.06681e-11 -2.43329e-11 -1.74406e-11 -1.0059e-11 -2.24092e-12 5.93837e-12 1.44496e-11 1.86233e-11 2.27107e-11 2.4435e-11 2.60589e-11 2.36466e-11 2.16285e-11 1.71479e-11 1.26994e-11 3.84711e-12 -4.50742e-12 -1.23917e-11 -1.9767e-11 -2.65778e-11 -3.22613e-11 -3.57834e-11 -3.95497e-11 -4.16192e-11 -4.39738e-11 -4.59571e-11 -4.75893e-11 -4.88767e-11 -4.98291e-11 -5.04456e-11 -5.07442e-11 -5.06834e-11 -5.03159e-11 -4.86501e-11 -4.72507e-11 -4.53485e-11 -4.29468e-11 -4.00529e-11 -3.66721e-11 -3.28099e-11 -2.84719e-11 -2.36631e-11 -1.83883e-11 -1.26514e-11 -6.45595e-12 1.94852e-13 7.29779e-12 1.48496e-11 2.28476e-11 3.12895e-11 4.01749e-11 4.95033e-11 5.92745e-11 6.94913e-11 8.02169e-11 9.48781e-11 1.03218e-10 1.15051e-10 1.24343e-10 1.35213e-10 1.45344e-10 1.55751e-10 1.69333e-10 9.47692e-11 9.49547e-11 9.49042e-11 -4.98813e-11 -4.76637e-11 -4.57579e-11 -4.41533e-11 -4.28333e-11 -4.17968e-11 -4.10436e-11 -4.05732e-11 -4.03855e-11 -4.0481e-11 -4.08598e-11 -4.15228e-11 -4.24715e-11 -4.37076e-11 -4.52361e-11 -4.70816e-11 -4.92634e-11 -4.01907e-11 -3.69145e-11 -3.41547e-11 -3.18904e-11 -3.00392e-11 -2.85693e-11 -2.74742e-11 -2.67498e-11 -2.6394e-11 -2.64069e-11 -2.67892e-11 -2.75441e-11 -2.86768e-11 -3.01957e-11 -3.21372e-11 -3.45911e-11 -3.75936e-11 1.71923e-10 1.57623e-10 1.4691e-10 1.36598e-10 1.26402e-10 1.16176e-10 1.04416e-10 9.30564e-11 8.07789e-11 6.99295e-11 5.96088e-11 4.97802e-11 4.04437e-11 3.15776e-11 2.31655e-11 1.51938e-11 7.6509e-12 5.29483e-13 -6.17362e-12 -1.24569e-11 -1.83154e-11 -2.37426e-11 -2.87287e-11 -3.32609e-11 -3.73274e-11 -4.09164e-11 -4.40138e-11 -4.66006e-11 -4.86747e-11 -5.06891e-11 -5.14763e-11 -5.18711e-11 -5.19694e-11 -5.1683e-11 -5.10365e-11 -5.00317e-11 -4.86626e-11 -4.69265e-11 -4.48105e-11 -4.2263e-11 -3.94434e-11 -3.61717e-11 -3.08042e-11 -2.45095e-11 -1.75207e-11 -1.00241e-11 -2.0479e-12 6.34618e-12 1.51176e-11 1.94923e-11 2.37668e-11 2.56587e-11 2.73677e-11 2.48661e-11 2.26784e-11 1.80168e-11 1.33777e-11 4.2684e-12 -4.30013e-12 -1.23456e-11 -1.98512e-11 -2.66372e-11 -3.24644e-11 -3.60271e-11 -3.91599e-11 -4.19173e-11 -4.42856e-11 -4.62803e-11 -4.79192e-11 -4.92095e-11 -5.01619e-11 -5.07764e-11 -5.10456e-11 -5.10233e-11 -5.06555e-11 -4.92832e-11 -4.78579e-11 -4.59342e-11 -4.35031e-11 -4.05748e-11 -3.71567e-11 -3.32545e-11 -2.88738e-11 -2.40202e-11 -1.86986e-11 -1.29129e-11 -6.66715e-12 3.53787e-14 7.19122e-12 1.47973e-11 2.28509e-11 3.13498e-11 4.02928e-11 4.96811e-11 5.95198e-11 6.97984e-11 8.0567e-11 9.31034e-11 1.03892e-10 1.15336e-10 1.25299e-10 1.35752e-10 1.45983e-10 1.56402e-10 1.71284e-10 9.3509e-11 9.37035e-11 9.36224e-11 -4.98567e-11 -4.76392e-11 -4.57296e-11 -4.41136e-11 -4.27842e-11 -4.17387e-11 -4.09763e-11 -4.04966e-11 -4.02998e-11 -4.0386e-11 -4.07556e-11 -4.14094e-11 -4.23487e-11 -4.35762e-11 -4.50974e-11 -4.6927e-11 -4.90958e-11 -3.93529e-11 -3.60255e-11 -3.32819e-11 -3.10065e-11 -2.9142e-11 -2.76622e-11 -2.6557e-11 -2.58221e-11 -2.5456e-11 -2.54586e-11 -2.58308e-11 -2.65751e-11 -2.76974e-11 -2.92098e-11 -3.11408e-11 -3.35619e-11 -3.66064e-11 1.73688e-10 1.5735e-10 1.46734e-10 1.36506e-10 1.26257e-10 1.16677e-10 1.04398e-10 9.14419e-11 8.10369e-11 7.0189e-11 5.98636e-11 5.00425e-11 4.06992e-11 3.18125e-11 2.33663e-11 1.53477e-11 7.74706e-12 5.59413e-13 -6.21605e-12 -1.25759e-11 -1.85128e-11 -2.4018e-11 -2.90805e-11 -3.36866e-11 -3.78228e-11 -4.14757e-11 -4.46306e-11 -4.72716e-11 -4.93883e-11 -5.10398e-11 -5.18329e-11 -5.22862e-11 -5.2324e-11 -5.20417e-11 -5.13963e-11 -5.0389e-11 -4.90133e-11 -4.72677e-11 -4.51333e-11 -4.20181e-11 -3.97238e-11 -3.6431e-11 -3.11231e-11 -2.47133e-11 -1.76581e-11 -1.00251e-11 -1.85985e-12 6.79247e-12 1.58807e-11 2.0497e-11 2.49991e-11 2.70575e-11 2.88711e-11 2.62629e-11 2.39051e-11 1.90223e-11 1.41531e-11 4.73498e-12 -4.09463e-12 -1.23335e-11 -1.99458e-11 -2.68721e-11 -3.26764e-11 -3.62695e-11 -3.88002e-11 -4.22145e-11 -4.46039e-11 -4.66086e-11 -4.82544e-11 -4.95475e-11 -5.04998e-11 -5.11111e-11 -5.13537e-11 -5.13674e-11 -5.09987e-11 -5.0001e-11 -4.85583e-11 -4.66056e-11 -4.41445e-11 -4.11824e-11 -3.77267e-11 -3.37841e-11 -2.93606e-11 -2.44619e-11 -1.90931e-11 -1.32583e-11 -6.9618e-12 -2.07167e-13 7.00205e-12 1.46628e-11 2.27727e-11 3.13294e-11 4.03317e-11 4.97798e-11 5.96799e-11 7.00456e-11 8.0906e-11 9.14135e-11 1.04255e-10 1.16411e-10 1.26089e-10 1.36358e-10 1.46687e-10 1.57302e-10 1.73499e-10 9.22448e-11 9.25126e-11 9.23221e-11 -4.98042e-11 -4.75901e-11 -4.56787e-11 -4.40515e-11 -4.27127e-11 -4.16584e-11 -4.08868e-11 -4.03981e-11 -4.01921e-11 -4.02692e-11 -4.06297e-11 -4.12744e-11 -4.22042e-11 -4.34229e-11 -4.49374e-11 -4.67491e-11 -4.88999e-11 -3.85073e-11 -3.51134e-11 -3.23957e-11 -3.01128e-11 -2.82351e-11 -2.67458e-11 -2.56309e-11 -2.48857e-11 -2.45094e-11 -2.45018e-11 -2.48639e-11 -2.55978e-11 -2.67092e-11 -2.82148e-11 -3.01354e-11 -3.25089e-11 -3.5602e-11 1.70802e-10 1.57988e-10 1.47024e-10 1.36619e-10 1.26332e-10 1.16396e-10 1.04235e-10 9.40131e-11 8.06403e-11 6.97544e-11 5.94316e-11 4.9605e-11 4.02746e-11 3.14218e-11 2.30313e-11 1.50881e-11 7.57967e-12 4.9711e-13 -6.16394e-12 -1.24031e-11 -1.82168e-11 -2.35997e-11 -2.85424e-11 -3.30331e-11 -3.70606e-11 -4.06134e-11 -4.36788e-11 -4.62392e-11 -4.82901e-11 -5.04911e-11 -5.12745e-11 -5.16364e-11 -5.17686e-11 -5.14803e-11 -5.08333e-11 -4.983e-11 -4.84646e-11 -4.67336e-11 -4.46287e-11 -4.24036e-11 -3.92863e-11 -3.60248e-11 -3.06998e-11 -2.43737e-11 -1.7444e-11 -1.00219e-11 -2.14944e-12 6.0993e-12 1.46901e-11 1.8925e-11 2.30661e-11 2.48597e-11 2.65081e-11 2.40687e-11 2.19809e-11 1.74481e-11 1.29421e-11 4.01138e-12 -4.41207e-12 -1.23505e-11 -1.97741e-11 -2.65817e-11 -3.23443e-11 -3.58917e-11 -3.93658e-11 -4.17501e-11 -4.41058e-11 -4.60952e-11 -4.773e-11 -4.90187e-11 -4.99711e-11 -5.05871e-11 -5.08716e-11 -5.08288e-11 -5.04617e-11 -4.88946e-11 -4.74828e-11 -4.5572e-11 -4.31573e-11 -4.02484e-11 -3.68515e-11 -3.29721e-11 -2.86158e-11 -2.37878e-11 -1.8493e-11 -1.27353e-11 -6.51847e-12 1.54299e-13 7.27966e-12 1.48544e-11 2.28759e-11 3.13418e-11 4.02514e-11 4.96044e-11 5.94047e-11 6.96405e-11 8.03824e-11 9.41288e-11 1.03524e-10 1.15185e-10 1.24677e-10 1.35354e-10 1.45525e-10 1.55941e-10 1.69911e-10 9.42245e-11 9.44016e-11 9.43552e-11 -4.98751e-11 -4.76564e-11 -4.57481e-11 -4.41388e-11 -4.28148e-11 -4.17743e-11 -4.10171e-11 -4.05427e-11 -4.03511e-11 -4.04425e-11 -4.08173e-11 -4.14763e-11 -4.2421e-11 -4.36533e-11 -4.51783e-11 -4.7018e-11 -4.91945e-11 -3.98244e-11 -3.65353e-11 -3.37769e-11 -3.15076e-11 -2.9651e-11 -2.81767e-11 -2.70771e-11 -2.63482e-11 -2.59879e-11 -2.59963e-11 -2.63743e-11 -2.71246e-11 -2.82529e-11 -2.97685e-11 -3.17051e-11 -3.41503e-11 -3.7161e-11 1.72748e-10 1.57443e-10 1.4683e-10 1.36563e-10 1.26387e-10 1.16242e-10 1.04469e-10 9.23561e-11 8.08851e-11 7.00493e-11 5.97264e-11 4.98996e-11 4.05595e-11 3.16842e-11 2.32569e-11 1.52646e-11 7.69656e-12 5.4648e-13 -6.18782e-12 -1.2504e-11 -1.83961e-11 -2.38566e-11 -2.88754e-11 -3.34391e-11 -3.75352e-11 -4.11515e-11 -4.42733e-11 -4.68822e-11 -4.89739e-11 -5.08388e-11 -5.16286e-11 -5.20483e-11 -5.21209e-11 -5.18361e-11 -5.11901e-11 -5.01842e-11 -4.88122e-11 -4.70722e-11 -4.49481e-11 -4.21579e-11 -3.95628e-11 -3.62824e-11 -3.09194e-11 -2.46021e-11 -1.7579e-11 -1.0025e-11 -1.96886e-12 6.53533e-12 1.54424e-11 1.9921e-11 2.4294e-11 2.62579e-11 2.80121e-11 2.54644e-11 2.32032e-11 1.84461e-11 1.37081e-11 4.46585e-12 -4.2135e-12 -1.23409e-11 -1.9898e-11 -2.67162e-11 -3.25548e-11 -3.61301e-11 -3.90058e-11 -4.20439e-11 -4.44214e-11 -4.64203e-11 -4.80622e-11 -4.93537e-11 -5.0306e-11 -5.09194e-11 -5.11771e-11 -5.11702e-11 -5.08019e-11 -4.95845e-11 -4.81514e-11 -4.62161e-11 -4.37723e-11 -4.08295e-11 -3.73954e-11 -3.34759e-11 -2.9077e-11 -2.42041e-11 -1.88622e-11 -1.30556e-11 -6.78805e-12 -6.31936e-14 7.11551e-12 1.4745e-11 2.28227e-11 3.13465e-11 4.03147e-11 4.97289e-11 5.95948e-11 6.99095e-11 8.07089e-11 9.23655e-11 1.041e-10 1.15663e-10 1.25677e-10 1.36048e-10 1.46327e-10 1.56807e-10 1.72319e-10 9.29682e-11 9.31894e-11 9.30664e-11 -4.98372e-11 -4.7621e-11 -4.57108e-11 -4.40898e-11 -4.27563e-11 -4.17071e-11 -4.09407e-11 -4.04572e-11 -4.02564e-11 -4.03387e-11 -4.07044e-11 -4.13543e-11 -4.22895e-11 -4.35133e-11 -4.50318e-11 -4.68535e-11 -4.90155e-11 -3.89939e-11 -3.56365e-11 -3.29054e-11 -3.06263e-11 -2.87558e-11 -2.72719e-11 -2.61625e-11 -2.54232e-11 -2.50528e-11 -2.5051e-11 -2.54189e-11 -2.61587e-11 -2.72764e-11 -2.87862e-11 -3.07128e-11 -3.31128e-11 -3.61818e-11 1.71646e-10 1.577e-10 1.46939e-10 1.36605e-10 1.26397e-10 1.16196e-10 1.04384e-10 9.32924e-11 8.07446e-11 6.98871e-11 5.95667e-11 4.97381e-11 4.04029e-11 3.15402e-11 2.31333e-11 1.51686e-11 7.6342e-12 5.22429e-13 -6.1702e-12 -1.24425e-11 -1.82898e-11 -2.37059e-11 -2.86811e-11 -3.32029e-11 -3.72595e-11 -4.08395e-11 -4.39289e-11 -4.65087e-11 -4.85771e-11 -5.06395e-11 -5.14257e-11 -5.18123e-11 -5.19191e-11 -5.16322e-11 -5.09856e-11 -4.99811e-11 -4.86129e-11 -4.68781e-11 -4.47648e-11 -4.22981e-11 -3.94039e-11 -3.6135e-11 -3.07727e-11 -2.4477e-11 -1.75013e-11 -1.00237e-11 -2.0737e-12 6.28388e-12 1.50101e-11 1.935e-11 2.35914e-11 2.5459e-11 2.71529e-11 2.46668e-11 2.25038e-11 1.78742e-11 1.32683e-11 4.20346e-12 -4.32853e-12 -1.23469e-11 -1.98337e-11 -2.66179e-11 -3.24343e-11 -3.59931e-11 -3.92114e-11 -4.18753e-11 -4.42405e-11 -4.62339e-11 -4.78718e-11 -4.91616e-11 -5.0114e-11 -5.07289e-11 -5.10019e-11 -5.09746e-11 -5.06069e-11 -4.91847e-11 -4.77624e-11 -4.58422e-11 -4.34152e-11 -4.04918e-11 -3.7079e-11 -3.31825e-11 -2.8808e-11 -2.39608e-11 -1.86458e-11 -1.28672e-11 -6.62864e-12 6.64478e-14 7.21467e-12 1.48129e-11 2.28585e-11 3.13492e-11 4.02837e-11 4.96633e-11 5.94928e-11 6.97597e-11 8.0521e-11 9.33541e-11 1.03811e-10 1.15265e-10 1.2516e-10 1.35652e-10 1.45869e-10 1.56278e-10 1.7094e-10 9.36888e-11 9.38764e-11 9.3807e-11 -4.98621e-11 -4.76443e-11 -4.57349e-11 -4.41206e-11 -4.27925e-11 -4.17483e-11 -4.09872e-11 -4.05088e-11 -4.03133e-11 -4.04008e-11 -4.07717e-11 -4.14268e-11 -4.23675e-11 -4.35961e-11 -4.51183e-11 -4.69506e-11 -4.91214e-11 -3.94715e-11 -3.61541e-11 -3.34064e-11 -3.11324e-11 -2.92699e-11 -2.77914e-11 -2.66876e-11 -2.59542e-11 -2.55896e-11 -2.55936e-11 -2.59672e-11 -2.67131e-11 -2.78369e-11 -2.93501e-11 -3.12825e-11 -3.37103e-11 -3.67462e-11 1.73564e-10 1.57336e-10 1.46756e-10 1.3652e-10 1.26307e-10 1.16521e-10 1.04439e-10 9.16676e-11 8.09981e-11 7.01563e-11 5.98314e-11 5.00085e-11 4.06659e-11 3.17819e-11 2.33403e-11 1.53281e-11 7.73555e-12 5.57223e-13 -6.208e-12 -1.25569e-11 -1.84826e-11 -2.39766e-11 -2.90282e-11 -3.36237e-11 -3.77498e-11 -4.13935e-11 -4.45401e-11 -4.71728e-11 -4.92829e-11 -5.09893e-11 -5.17817e-11 -5.22265e-11 -5.22731e-11 -5.19901e-11 -5.13446e-11 -5.03376e-11 -4.89629e-11 -4.72187e-11 -4.50868e-11 -4.2053e-11 -3.96834e-11 -3.63937e-11 -3.10664e-11 -2.46871e-11 -1.76381e-11 -1.00252e-11 -1.88746e-12 6.72767e-12 1.57706e-11 2.03525e-11 2.48226e-11 2.68575e-11 2.86564e-11 2.60631e-11 2.37294e-11 1.88779e-11 1.40414e-11 4.66709e-12 -4.12473e-12 -1.23354e-11 -1.99357e-11 -2.68273e-11 -3.26459e-11 -3.62344e-11 -3.88516e-11 -4.21716e-11 -4.45582e-11 -4.65613e-11 -4.82062e-11 -4.94989e-11 -5.04512e-11 -5.10631e-11 -5.13094e-11 -5.13179e-11 -5.09493e-11 -4.98953e-11 -4.84549e-11 -4.65068e-11 -4.405e-11 -4.10927e-11 -3.76425e-11 -3.37057e-11 -2.92883e-11 -2.43961e-11 -1.9034e-11 -1.32063e-11 -6.91702e-12 -1.69827e-13 7.03176e-12 1.46847e-11 2.27865e-11 3.1335e-11 4.03288e-11 4.97684e-11 5.96603e-11 7.00126e-11 8.08565e-11 9.16477e-11 1.04236e-10 1.16187e-10 1.25986e-10 1.36345e-10 1.46668e-10 1.57261e-10 1.7336e-10 9.2426e-11 9.2681e-11 9.25085e-11 -4.98132e-11 -4.75985e-11 -4.56875e-11 -4.40617e-11 -4.27243e-11 -4.16713e-11 -4.0901e-11 -4.04135e-11 -4.02089e-11 -4.02872e-11 -4.06491e-11 -4.1295e-11 -4.22262e-11 -4.34462e-11 -4.49618e-11 -4.67758e-11 -4.89297e-11 -3.86298e-11 -3.52444e-11 -3.2524e-11 -3.02419e-11 -2.83659e-11 -2.6878e-11 -2.57644e-11 -2.50207e-11 -2.46459e-11 -2.46397e-11 -2.50033e-11 -2.57386e-11 -2.68516e-11 -2.83584e-11 -3.02806e-11 -3.26601e-11 -3.57486e-11 1.70674e-10 1.57984e-10 1.47045e-10 1.36621e-10 1.26318e-10 1.1651e-10 1.0416e-10 9.42607e-11 8.06031e-11 6.97092e-11 5.93832e-11 4.95585e-11 4.02297e-11 3.13804e-11 2.29955e-11 1.50597e-11 7.56001e-12 4.87286e-13 -6.16318e-12 -1.23913e-11 -1.81938e-11 -2.35657e-11 -2.84976e-11 -3.29779e-11 -3.69957e-11 -4.05395e-11 -4.3597e-11 -4.61515e-11 -4.81964e-11 -5.04419e-11 -5.12242e-11 -5.15781e-11 -5.17187e-11 -5.14298e-11 -5.07828e-11 -4.97798e-11 -4.84154e-11 -4.66857e-11 -4.45835e-11 -4.24389e-11 -3.92474e-11 -3.59881e-11 -3.06832e-11 -2.43368e-11 -1.74254e-11 -1.0021e-11 -2.17415e-12 6.03859e-12 1.45843e-11 1.87839e-11 2.28913e-11 2.46598e-11 2.6293e-11 2.38693e-11 2.18069e-11 1.73066e-11 1.2834e-11 3.94827e-12 -4.43927e-12 -1.23518e-11 -1.97514e-11 -2.65774e-11 -3.23143e-11 -3.58582e-11 -3.94174e-11 -4.17086e-11 -4.40611e-11 -4.60492e-11 -4.7683e-11 -4.89713e-11 -4.99236e-11 -5.054e-11 -5.08283e-11 -5.07803e-11 -5.04135e-11 -4.87996e-11 -4.73921e-11 -4.54838e-11 -4.30732e-11 -4.01692e-11 -3.67776e-11 -3.29038e-11 -2.85536e-11 -2.3732e-11 -1.84439e-11 -1.26932e-11 -6.48353e-12 1.81799e-13 7.29955e-12 1.48665e-11 2.28799e-11 3.13376e-11 4.02388e-11 4.95831e-11 5.93727e-11 6.96007e-11 8.03337e-11 9.43992e-11 1.03406e-10 1.15207e-10 1.245e-10 1.35331e-10 1.45505e-10 1.55902e-10 1.69774e-10 9.44005e-11 9.45798e-11 9.45342e-11 -4.98783e-11 -4.76594e-11 -4.57516e-11 -4.4144e-11 -4.28212e-11 -4.17821e-11 -4.10262e-11 -4.0553e-11 -4.03627e-11 -4.04554e-11 -4.08316e-11 -4.14919e-11 -4.24379e-11 -4.36713e-11 -4.51974e-11 -4.70394e-11 -4.92177e-11 -3.99413e-11 -3.66605e-11 -3.38995e-11 -3.16319e-11 -2.97772e-11 -2.83043e-11 -2.72062e-11 -2.64787e-11 -2.61199e-11 -2.61297e-11 -2.65091e-11 -2.72609e-11 -2.83906e-11 -2.99072e-11 -3.18452e-11 -3.4295e-11 -3.72978e-11 1.72474e-10 1.57495e-10 1.46856e-10 1.36577e-10 1.26397e-10 1.16199e-10 1.04459e-10 9.25883e-11 8.0849e-11 7.00107e-11 5.96886e-11 4.9861e-11 4.05219e-11 3.16497e-11 2.32273e-11 1.52418e-11 7.68208e-12 5.41508e-13 -6.18242e-12 -1.24877e-11 -1.83686e-11 -2.3818e-11 -2.88258e-11 -3.3379e-11 -3.74652e-11 -4.10724e-11 -4.4186e-11 -4.67873e-11 -4.88731e-11 -5.07888e-11 -5.15777e-11 -5.19891e-11 -5.20703e-11 -5.17849e-11 -5.11388e-11 -5.01333e-11 -4.87622e-11 -4.70235e-11 -4.49021e-11 -4.21929e-11 -3.95228e-11 -3.62454e-11 -3.08776e-11 -2.4572e-11 -1.75595e-11 -1.00247e-11 -1.99548e-12 6.47191e-12 1.53337e-11 1.97778e-11 2.41181e-11 2.60582e-11 2.77973e-11 2.52649e-11 2.30282e-11 1.83027e-11 1.35976e-11 4.3996e-12 -4.24261e-12 -1.23426e-11 -1.98833e-11 -2.66864e-11 -3.25246e-11 -3.60957e-11 -3.90572e-11 -4.20015e-11 -4.43761e-11 -4.63736e-11 -4.80144e-11 -4.93055e-11 -5.02579e-11 -5.08717e-11 -5.11332e-11 -5.11211e-11 -5.0753e-11 -4.94831e-11 -4.80524e-11 -4.61211e-11 -4.36816e-11 -4.07436e-11 -3.73149e-11 -3.34012e-11 -2.90083e-11 -2.41419e-11 -1.88068e-11 -1.30071e-11 -6.74685e-12 -2.94413e-14 7.14164e-12 1.47633e-11 2.2833e-11 3.13485e-11 4.03083e-11 4.97139e-11 5.95709e-11 6.98733e-11 8.06608e-11 9.26092e-11 1.04036e-10 1.15535e-10 1.25557e-10 1.359