<?xml version="1.0"?>
<VTKFile byte_order="LittleEndian" type="UnstructuredGrid" version="0.1">
<UnstructuredGrid>
<Piece NumberOfCells="288" NumberOfPoints="384">
<PointData>
<DataArray Name="Warping_X" format="ascii" type="Float64">
0.162634 0.20151 0.17894 0.192605 0.20362 0.212011 0.217861 0.221281 0.222429 0.221487 0.218676 0.214235 0.208421 0.207986 0.173495 0.19036 0.204388 0.21556 0.223922 0.229562 0.232607 0.233222 0.231614 0.228016 0.222687 0.215912 0.214458 0.184816 0.202225 0.216596 0.227907 0.236215 0.241614 0.244241 0.244284 0.241958 0.237518 0.231252 0.223457 0.220926 0.196586 0.214527 0.229218 0.240657 0.248885 0.254009 0.256183 0.255606 0.252518 0.247188 0.239923 0.231055 0.128926 0.193783 0.18553 0.177032 0.16857 0.160404 0.152784 0.145929 0.140039 0.135279 0.131782 0.129645 0.126905 0.199214 0.18991 0.180378 0.170921 0.161821 0.153346 0.145737 0.139207 0.133935 0.130064 0.127701 0.124436 0.204584 0.194171 0.18355 0.173045 0.162964 0.153592 0.145189 0.137987 0.132178 0.127915 0.125311 0.121522 0.209892 0.198313 0.186549 0.174945 0.163834 0.153521 0.144288 0.136381 0.130008 0.125335 0.122482 0.20151 0.129645 0.131782 0.135279 0.140039 0.145929 0.152784 0.160404 0.16857 0.177032 0.18553 0.193783 0.207986 0.127701 0.130064 0.133935 0.139207 0.145737 0.153346 0.161821 0.170921 0.180378 0.18991 0.199214 0.214458 0.125311 0.127915 0.132178 0.137987 0.145189 0.153592 0.162964 0.173045 0.18355 0.194171 0.204584 0.220926 0.122482 0.125335 0.130008 0.136381 0.144288 0.153521 0.163834 0.174945 0.186549 0.198313 0.209892 0.162634 0.208421 0.214235 0.218676 0.221487 0.222429 0.221281 0.217861 0.212011 0.20362 0.192605 0.17894 0.173495 0.215912 0.222687 0.228016 0.231614 0.233222 0.232607 0.229562 0.223922 0.21556 0.204388 0.19036 0.184816 0.223457 0.231252 0.237518 0.241958 0.244284 0.244241 0.241614 0.236215 0.227907 0.216596 0.202225 0.196586 0.231055 0.239923 0.247188 0.252518 0.255606 0.256183 0.254009 0.248885 0.240657 0.229218 0.214527 -0.20008 0.143026 0.120901 0.0962991 0.0693383 0.0402016 0.00910767 -0.0236559 -0.0577788 -0.0928871 -0.128594 -0.164467 -0.205963 0.153637 0.130971 0.105598 0.0776322 0.0472609 0.0147341 -0.0196548 -0.055557 -0.0925736 -0.130292 -0.168242 -0.211853 0.164645 0.141443 0.115272 0.0862757 0.0546452 0.0206368 -0.0154118 -0.0531328 -0.0921143 -0.131888 -0.171971 -0.217735 0.1761 0.152342 0.125366 0.0953023 0.0623719 0.0268597 -0.0108989 -0.0504916 -0.0914803 -0.133369 -0.175637 -0.45605 -0.234974 -0.268696 -0.300804 -0.330865 -0.358473 -0.383233 -0.404814 -0.422901 -0.43725 -0.447643 -0.453939 -0.478054 -0.242964 -0.278754 -0.312864 -0.344815 -0.374172 -0.400523 -0.423489 -0.442751 -0.458028 -0.469102 -0.475806 -0.500471 -0.251013 -0.288929 -0.325079 -0.358974 -0.390125 -0.418094 -0.442493 -0.462952 -0.479181 -0.490952 -0.498082 -0.523292 -0.259108 -0.299198 -0.337452 -0.373333 -0.406322 -0.435963 -0.461815 -0.483509 -0.500721 -0.513193 -0.520759 -0.20008 -0.453939 -0.447643 -0.43725 -0.422901 -0.404814 -0.383233 -0.358473 -0.330865 -0.300804 -0.268696 -0.234974 -0.205963 -0.475806 -0.469102 -0.458028 -0.442751 -0.423489 -0.400523 -0.374172 -0.344815 -0.312864 -0.278754 -0.242964 -0.211853 -0.498082 -0.490952 -0.479181 -0.462952 -0.442493 -0.418094 -0.390125 -0.358974 -0.325079 -0.288929 -0.251013 -0.217735 -0.520759 -0.513193 -0.500721 -0.483509 -0.461815 -0.435963 -0.406322 -0.373333 -0.337452 -0.299198 -0.259108 -0.164467 -0.128594 -0.0928871 -0.0577788 -0.0236559 0.00910767 0.0402016 0.0693383 0.0962991 0.120901 0.143026 -0.168242 -0.130292 -0.0925736 -0.055557 -0.0196548 0.0147341 0.0472609 0.0776322 0.105598 0.130971 0.153637 -0.171971 -0.131888 -0.0921143 -0.0531328 -0.0154118 0.0206368 0.0546452 0.0862757 0.115272 0.141443 0.164645 -0.175637 -0.133369 -0.0914803 -0.0504916 -0.0108989 0.0268597 0.0623719 0.0953023 0.125366 0.152342 0.1761 
</DataArray>
<DataArray Name="Warping_Y" format="ascii" type="Float64">
-0.243519 -0.025916 -0.22424 -0.204109 -0.183516 -0.162788 -0.142253 -0.122208 -0.102939 -0.084693 -0.0676987 -0.0521408 -0.0381775 -0.0215485 -0.253515 -0.232693 -0.211036 -0.188921 -0.166709 -0.14474 -0.123345 -0.102819 -0.0834359 -0.0654381 -0.0490208 -0.0343523 -0.0167379 -0.263515 -0.241093 -0.217845 -0.194155 -0.170405 -0.14696 -0.124163 -0.102347 -0.0817981 -0.0627673 -0.0454737 -0.030088 -0.011487 -0.273518 -0.249429 -0.224544 -0.199227 -0.173881 -0.148906 -0.124675 -0.101527 -0.0797763 -0.0596907 -0.0415007 -0.0253871 1.08383e-12 -0.0154336 -0.00676245 0.000106201 0.00522141 0.00866947 0.0105695 0.0110796 0.0103815 0.00868717 0.0062255 0.00324404 1.03811e-12 -0.0106885 -0.00180565 0.00511459 0.0101226 0.0133149 0.0148257 0.0148226 0.0135079 0.0111096 0.00787817 0.00408162 9.9222e-13 -0.00550417 0.00358111 0.0105305 0.0154074 0.0183136 0.0193942 0.0188365 0.0168562 0.0137022 0.00964633 0.00497729 9.46507e-13 0.000116719 0.00939115 0.0163551 0.0210739 0.0236598 0.024275 0.0231179 0.020425 0.0164633 0.0115273 0.00593026 0.025916 -0.00324404 -0.0062255 -0.00868717 -0.0103815 -0.0110796 -0.0105695 -0.00866947 -0.00522141 -0.000106201 0.00676245 0.0154336 0.0215485 -0.00408162 -0.00787817 -0.0111096 -0.0135079 -0.0148226 -0.0148257 -0.0133149 -0.0101226 -0.00511459 0.00180565 0.0106885 0.0167379 -0.00497729 -0.00964633 -0.0137022 -0.0168562 -0.0188365 -0.0193942 -0.0183136 -0.0154074 -0.0105305 -0.00358111 0.00550417 0.011487 -0.00593026 -0.0115273 -0.0164633 -0.020425 -0.0231179 -0.024275 -0.0236598 -0.0210739 -0.0163551 -0.00939115 -0.000116719 0.243519 0.0381775 0.0521408 0.0676987 0.084693 0.102939 0.122208 0.142253 0.162788 0.183516 0.204109 0.22424 0.253515 0.0343523 0.0490208 0.0654381 0.0834359 0.102819 0.123345 0.14474 0.166709 0.188921 0.211036 0.232693 0.263515 0.030088 0.0454737 0.0627673 0.0817981 0.102347 0.124163 0.14696 0.170405 0.194155 0.217845 0.241093 0.273518 0.0253871 0.0415007 0.0596907 0.0797763 0.101527 0.124675 0.148906 0.173881 0.199227 0.224544 0.249429 0.336311 0.262225 0.280075 0.296767 0.311877 0.325022 0.335831 0.34398 0.349172 0.351169 0.349779 0.344851 0.356536 0.273623 0.292986 0.31112 0.327593 0.341982 0.353892 0.362961 0.368881 0.371378 0.370243 0.365328 0.37719 0.285163 0.306067 0.325692 0.343571 0.359245 0.372287 0.382315 0.388977 0.391992 0.391136 0.386234 0.398288 0.296817 0.319303 0.340477 0.359808 0.376808 0.391022 0.402033 0.409475 0.413031 0.412458 0.407583 -2.85442e-12 0.324127 0.308348 0.289055 0.266421 0.240648 0.212003 0.180796 0.147383 0.11216 0.0755534 0.0380121 -2.49621e-12 0.343837 0.327275 0.30695 0.283033 0.255739 0.225364 0.192237 0.156739 0.1193 0.0803727 0.0404395 -2.1409e-12 0.363969 0.346615 0.325232 0.300002 0.271169 0.239024 0.203932 0.16631 0.126605 0.085306 0.0429212 -1.78257e-12 0.384539 0.366375 0.343921 0.317356 0.286937 0.252987 0.215897 0.176097 0.13407 0.0903439 0.0454591 -0.336311 -0.0380121 -0.0755534 -0.11216 -0.147383 -0.180796 -0.212003 -0.240648 -0.266421 -0.289055 -0.308348 -0.324127 -0.356536 -0.0404395 -0.0803727 -0.1193 -0.156739 -0.192237 -0.225364 -0.255739 -0.283033 -0.30695 -0.327275 -0.343837 -0.37719 -0.0429212 -0.085306 -0.126605 -0.16631 -0.203932 -0.239024 -0.271169 -0.300002 -0.325232 -0.346615 -0.363969 -0.398288 -0.0454591 -0.0903439 -0.13407 -0.176097 -0.215897 -0.252987 -0.286937 -0.317356 -0.343921 -0.366375 -0.384539 -0.344851 -0.349779 -0.351169 -0.349172 -0.34398 -0.335831 -0.325022 -0.311877 -0.296767 -0.280075 -0.262225 -0.365328 -0.370243 -0.371378 -0.368881 -0.362961 -0.353892 -0.341982 -0.327593 -0.31112 -0.292986 -0.273623 -0.386234 -0.391136 -0.391992 -0.388977 -0.382315 -0.372287 -0.359245 -0.343571 -0.325692 -0.306067 -0.285163 -0.407583 -0.412458 -0.413031 -0.409475 -0.402033 -0.391022 -0.376808 -0.359808 -0.340477 -0.319303 -0.296817 
</DataArray>
<DataArray Name="Warping_Z" format="ascii" type="Float64">
0 0 0 0 0 0 0 0 0 0 0 0 0 0 0 0 0 0 0 0 0 0 0 0 0 0 0 0 0 0 0 0 0 0 0 0 0 0 0 0 0 0 0 0 0 0 0 0 0 0 0 0 0 0 0 0 0 0 0 0 0 0 0 0 0 0 0 0 0 0 0 0 0 0 0 0 0 0 0 0 0 0 0 0 0 0 0 0 0 0 0 0 0 0 0 0 0 0 0 0 0 0 0 0 0 0 0 0 0 0 0 0 0 0 0 0 0 0 0 0 0 0 0 0 0 0 0 0 0 0 0 0 0 0 0 0 0 0 0 0 0 0 0 0 0 0 0 0 0 0 0 0 0 0 0 0 0 0 0 0 0 0 0 0 0 0 0 0 0 0 0 0 0 0 0 0 0 0 0 0 0 0 0 0 0 0 0 0 0 0 0 0 0 0 0 0 0 0 0 0 0 0 0 0 0 0 0 0 0 0 0 0 0 0 0 0 0 0 0 0 0 0 0 0 0 0 0 0 0 0 0 0 0 0 0 0 0 0 0 0 0 0 0 0 0 0 0 0 0 0 0 0 0 0 0 0 0 0 0 0 0 0 0 0 0 0 0 0 0 0 0 0 0 0 0 0 0 0 0 0 0 0 0 0 0 0 0 0 0 0 0 0 0 0 0 0 0 0 0 0 0 0 0 0 0 0 0 0 0 0 0 0 0 0 0 0 0 0 0 0 0 0 0 0 0 0 0 0 0 0 0 0 0 0 0 0 0 0 0 0 0 0 0 0 0 0 0 0 0 0 0 0 0 0 0 0 0 0 0 0 0 0 0 0 0 0 0 0 0 0 0 0 0 0 0 0 0 0 0 0 0 0 0 0 
</DataArray>
</PointData>
<CellData>
<DataArray Name="MaterialId" format="ascii" type="Float64">
1 1 1 1 1 1 1 1 1 1 1 1 1 1 1 1 1 1 1 1 1 1 1 1 1 1 1 1 1 1 1 1 1 1 1 1 1 1 1 1 1 1 1 1 1 1 1 1 1 1 1 1 1 1 1 1 1 1 1 1 1 1 1 1 1 1 1 1 1 1 1 1 1 1 1 1 1 1 1 1 1 1 1 1 1 1 1 1 1 1 1 1 1 1 1 1 1 1 1 1 1 1 1 1 1 1 1 1 1 1 1 1 1 1 1 1 1 1 1 1 1 1 1 1 1 1 1 1 1 1 1 1 1 1 1 1 1 1 1 1 1 1 1 1 2 2 2 2 2 2 2 2 2 2 2 2 2 2 2 2 2 2 2 2 2 2 2 2 2 2 2 2 2 2 2 2 2 2 2 2 2 2 2 2 2 2 2 2 2 2 2 2 2 2 2 2 2 2 2 2 2 2 2 2 2 2 2 2 2 2 2 2 2 2 2 2 2 2 2 2 2 2 2 2 2 2 2 2 2 2 2 2 2 2 2 2 2 2 2 2 2 2 2 2 2 2 2 2 2 2 2 2 2 2 2 2 2 2 2 2 2 2 2 2 2 2 2 2 2 2 2 2 2 2 2 2 2 2 2 2 2 2 2 2 2 2 2 2 
</DataArray>
<DataArray Name="FiberAngle" format="ascii" type="Float64">
0 0 0 0 0 0 0 0 0 0 0 0 0 0 0 0 0 0 0 0 0 0 0 0 0 0 0 0 0 0 0 0 0 0 0 0 0 0 0 0 0 0 0 0 0 0 0 0 0 0 0 0 0 0 0 0 0 0 0 0 0 0 0 0 0 0 0 0 0 0 0 0 0 0 0 0 0 0 0 0 0 0 0 0 0 0 0 0 0 0 0 0 0 0 0 0 0 0 0 0 0 0 0 0 0 0 0 0 0 0 0 0 0 0 0 0 0 0 0 0 0 0 0 0 0 0 0 0 0 0 0 0 0 0 0 0 0 0 0 0 0 0 0 0 0 0 0 0 0 0 0 0 0 0 0 0 0 0 0 0 0 0 0 0 0 0 0 0 0 0 0 0 0 0 0 0 0 0 0 0 0 0 0 0 0 0 0 0 0 0 0 0 0 0 0 0 0 0 0 0 0 0 0 0 0 0 0 0 0 0 0 0 0 0 0 0 0 0 0 0 0 0 0 0 0 0 0 0 0 0 0 0 0 0 0 0 0 0 0 0 0 0 0 0 0 0 0 0 0 0 0 0 0 0 0 0 0 0 0 0 0 0 0 0 0 0 0 0 0 0 0 0 0 0 0 0 0 0 0 0 0 0 0 0 0 0 0 0 
</DataArray>
<DataArray Name="Strain_11" format="ascii" type="Float64">
-2.87303 -2.63837 -2.40458 -2.17303 -1.94509 -1.72177 -1.50401 -1.29274 -1.08889 -0.893309 -0.706838 -0.530286 -2.86917 -2.62691 -2.38452 -2.14548 -1.91003 -1.67914 -1.45389 -1.23523 -1.02406 -0.821318 -0.627847 -0.44449 -2.86373 -2.61391 -2.36439 -2.11756 -1.87441 -1.63594 -1.40314 -1.17702 -0.958563 -0.748663 -0.54823 -0.358148 -0.364366 -0.209812 -0.067213 0.0628024 0.179732 0.283106 0.372471 0.447492 0.507879 0.55338 0.583796 0.599038 -0.272038 -0.111229 0.0372391 0.172764 0.294755 0.402622 0.495997 0.574425 0.63756 0.685172 0.717006 0.732968 -0.179242 -0.0123119 0.141955 0.282835 0.409714 0.522014 0.619247 0.700963 0.766775 0.8164 0.849616 0.866264 0.599038 0.583796 0.55338 0.507879 0.447492 0.372471 0.283106 0.179732 0.0628024 -0.067213 -0.209812 -0.364366 0.732968 0.717006 0.685172 0.63756 0.574425 0.495997 0.402622 0.294755 0.172764 0.0372391 -0.111229 -0.272038 0.866264 0.849616 0.8164 0.766775 0.700963 0.619247 0.522014 0.409714 0.282835 0.141955 -0.0123119 -0.179242 -0.530286 -0.706838 -0.893309 -1.08889 -1.29274 -1.50401 -1.72177 -1.94509 -2.17303 -2.40458 -2.63837 -2.87303 -0.44449 -0.627847 -0.821318 -1.02406 -1.23523 -1.45389 -1.67914 -1.91003 -2.14548 -2.38452 -2.62691 -2.86917 -0.358148 -0.54823 -0.748663 -0.958563 -1.17702 -1.40314 -1.63594 -1.87441 -2.11756 -2.36439 -2.61391 -2.86373 -3.18258 -3.41157 -3.63651 -3.85897 -4.07793 -4.29276 -4.50268 -4.70695 -4.90478 -5.09544 -5.27811 -5.452 -3.10826 -3.35541 -3.59749 -3.83758 -4.07396 -4.30566 -4.53159 -4.75081 -4.96237 -5.16534 -5.35888 -5.54215 -3.04355 -3.30197 -3.56163 -3.81796 -4.07056 -4.31797 -4.55898 -4.79237 -5.01702 -5.23192 -5.43613 -5.62875 -5.61635 -5.77032 -5.91321 -6.04424 -6.16271 -6.26799 -6.35943 -6.4365 -6.49876 -6.54579 -6.5773 -6.59311 -5.71438 -5.87483 -6.02285 -6.15784 -6.27927 -6.38654 -6.47934 -6.55725 -6.61992 -6.66717 -6.69875 -6.71459 -5.80903 -5.97626 -6.1299 -6.26939 -6.39431 -6.5043 -6.59907 -6.67837 -6.742 -6.78985 -6.8218 -6.8378 -6.59311 -6.5773 -6.54579 -6.49876 -6.4365 -6.35943 -6.26799 -6.16271 -6.04424 -5.91321 -5.77032 -5.61635 -6.71459 -6.69875 -6.66717 -6.61992 -6.55725 -6.47934 -6.38654 -6.27927 -6.15784 -6.02285 -5.87483 -5.71438 -6.8378 -6.8218 -6.78985 -6.742 -6.67837 -6.59907 -6.5043 -6.39431 -6.26939 -6.1299 -5.97626 -5.80903 -5.452 -5.27811 -5.09544 -4.90478 -4.70695 -4.50268 -4.29276 -4.07793 -3.85897 -3.63651 -3.41157 -3.18258 -5.54215 -5.35888 -5.16534 -4.96237 -4.75081 -4.53159 -4.30566 -4.07396 -3.83758 -3.59749 -3.35541 -3.10826 -5.62875 -5.43613 -5.23192 -5.01702 -4.79237 -4.55898 -4.31797 -4.07056 -3.81796 -3.56163 -3.30197 -3.04355 
</DataArray>
<DataArray Name="Strain_22" format="ascii" type="Float64">
-2.87703 -2.63872 -2.40606 -2.17535 -1.94813 -1.72521 -1.50767 -1.2963 -1.09208 -0.895867 -0.708473 -0.530758 -2.873 -2.62553 -2.38423 -2.1452 -1.90956 -1.67864 -1.4533 -1.23459 -1.02343 -0.820665 -0.627231 -0.443917 -2.86944 -2.61246 -2.36296 -2.11526 -1.87144 -1.63248 -1.39949 -1.17341 -0.955271 -0.745975 -0.54639 -0.35741 -0.363458 -0.207348 -0.0630934 0.0686737 0.18735 0.292407 0.383362 0.459794 0.521374 0.567812 0.598876 0.614444 -0.271525 -0.110805 0.0376004 0.173013 0.294882 0.402695 0.495949 0.574295 0.63736 0.684904 0.716723 0.732647 -0.179819 -0.01435 0.138302 0.277534 0.402747 0.513414 0.609131 0.689494 0.754164 0.802883 0.835476 0.851816 0.614444 0.598876 0.567812 0.521374 0.459794 0.383362 0.292407 0.18735 0.0686737 -0.0630934 -0.207348 -0.363458 0.732647 0.716723 0.684904 0.63736 0.574295 0.495949 0.402695 0.294882 0.173013 0.0376004 -0.110805 -0.271525 0.851816 0.835476 0.802883 0.754164 0.689494 0.609131 0.513414 0.402747 0.277534 0.138302 -0.01435 -0.179819 -0.530758 -0.708473 -0.895867 -1.09208 -1.2963 -1.50767 -1.72521 -1.94813 -2.17535 -2.40606 -2.63872 -2.87703 -0.443917 -0.627231 -0.820665 -1.02343 -1.23459 -1.4533 -1.67864 -1.90956 -2.1452 -2.38423 -2.62553 -2.873 -0.35741 -0.54639 -0.745975 -0.955271 -1.17341 -1.39949 -1.63248 -1.87144 -2.11526 -2.36296 -2.61246 -2.86944 -3.10341 -3.32677 -3.56453 -3.79753 -4.02746 -4.25265 -4.472 -4.68449 -4.88905 -5.08474 -5.27074 -5.44619 -3.12043 -3.35894 -3.59921 -3.83743 -4.07182 -4.30169 -4.5261 -4.74402 -4.95457 -5.15688 -5.35004 -5.53324 -3.13459 -3.38763 -3.63293 -3.87693 -4.11688 -4.35239 -4.58255 -4.80656 -5.02355 -5.23267 -5.43309 -5.6239 -5.61044 -5.76281 -5.90279 -6.02991 -6.14376 -6.24401 -6.33039 -6.40267 -6.46069 -6.50431 -6.53343 -6.548 -5.70568 -5.86658 -6.01528 -6.15108 -6.27339 -6.38168 -6.4754 -6.55419 -6.61764 -6.6655 -6.69754 -6.71358 -5.80422 -5.97323 -6.13004 -6.27389 -6.40397 -6.51952 -6.61992 -6.70456 -6.77291 -6.82455 -6.85916 -6.87654 -6.548 -6.53343 -6.50431 -6.46069 -6.40267 -6.33039 -6.24401 -6.14376 -6.02991 -5.90279 -5.76281 -5.61044 -6.71358 -6.69754 -6.6655 -6.61764 -6.55419 -6.4754 -6.38168 -6.27339 -6.15108 -6.01528 -5.86658 -5.70568 -6.87654 -6.85916 -6.82455 -6.77291 -6.70456 -6.61992 -6.51952 -6.40397 -6.27389 -6.13004 -5.97323 -5.80422 -5.44619 -5.27074 -5.08474 -4.88905 -4.68449 -4.472 -4.25265 -4.02746 -3.79753 -3.56453 -3.32677 -3.10341 -5.53324 -5.35004 -5.15688 -4.95457 -4.74402 -4.5261 -4.30169 -4.07182 -3.83743 -3.59921 -3.35894 -3.12043 -5.6239 -5.43309 -5.23267 -5.02355 -4.80656 -4.58255 -4.35239 -4.11688 -3.87693 -3.63293 -3.38763 -3.13459 
</DataArray>
<DataArray Name="Strain_12" format="ascii" type="Float64">
0.00172964 -0.00108055 0.000899449 0.00150235 0.00232534 0.00335587 0.00454348 0.00574788 0.00701042 0.00822134 0.00929813 0.0102459 0.000889745 0.000437187 0.000756921 0.000683793 0.000587162 0.000499879 0.000383654 0.00029563 0.000177091 3.30094e-05 -4.2509e-05 -0.000163091 -0.00100538 0.00142205 -0.000495292 -0.00101511 -0.00180484 -0.0028323 -0.00394816 -0.00517645 -0.00637931 -0.00754278 -0.00863613 -0.00955988 0.0109712 0.0114662 0.0116681 0.0115632 0.0111658 0.0104463 0.00940979 0.00813471 0.00657833 0.00485442 0.00296571 0.00100298 -0.000254053 -0.000310609 -0.00039063 -0.000392089 -0.000447203 -0.000432326 -0.000371135 -0.000372845 -0.000295015 -0.000213695 -0.000133797 -4.57215e-05 -0.0102902 -0.0107759 -0.0110019 -0.0109376 -0.0105659 -0.00988103 -0.00896123 -0.00770992 -0.00624874 -0.00462581 -0.00282075 -0.000954573 -0.00100298 -0.00296571 -0.00485442 -0.00657833 -0.00813471 -0.00940979 -0.0104463 -0.0111658 -0.0115632 -0.0116681 -0.0114662 -0.0109712 4.57215e-05 0.000133797 0.000213695 0.000295015 0.000372845 0.000371135 0.000432326 0.000447203 0.000392089 0.00039063 0.000310609 0.000254053 0.000954573 0.00282075 0.00462581 0.00624874 0.00770992 0.00896123 0.00988103 0.0105659 0.0109376 0.0110019 0.0107759 0.0102902 -0.0102459 -0.00929813 -0.00822134 -0.00701042 -0.00574788 -0.00454348 -0.00335587 -0.00232534 -0.00150235 -0.000899449 0.00108055 -0.00172964 0.000163091 4.2509e-05 -3.30094e-05 -0.000177091 -0.00029563 -0.000383654 -0.000499879 -0.000587162 -0.000683793 -0.000756921 -0.000437187 -0.000889745 0.00955988 0.00863613 0.00754278 0.00637931 0.00517645 0.00394816 0.0028323 0.00180484 0.00101511 0.000495292 -0.00142205 0.00100538 0.0102196 -0.010561 -0.015984 -0.0215989 -0.0245014 -0.0252146 -0.0239203 -0.0208887 -0.0165493 -0.0112456 -0.00535255 0.000675507 0.00876003 0.0151018 0.0131921 0.0135883 0.0129195 0.0121078 0.0110031 0.00966462 0.00820396 0.00667524 0.00506584 0.00354529 0.00986956 0.0244043 0.0319687 0.0367441 0.0391926 0.0390677 0.0367507 0.0325955 0.0269471 0.0202744 0.0130411 0.00564772 0.0065044 0.011758 0.0161689 0.0195057 0.0215779 0.0223157 0.021728 0.0197966 0.0167539 0.0126967 0.00793126 0.00269208 0.0021039 0.000785708 -0.000290769 -0.00122541 -0.00182879 -0.00223673 -0.002435 -0.00229726 -0.00203816 -0.00159634 -0.00100791 -0.000344333 -0.00146561 -0.00793269 -0.0134132 -0.0176545 -0.0204984 -0.0218538 -0.0216124 -0.0200062 -0.0170601 -0.01299 -0.0081538 -0.00277117 -0.00269208 -0.00793126 -0.0126967 -0.0167539 -0.0197966 -0.021728 -0.0223157 -0.0215779 -0.0195057 -0.0161689 -0.011758 -0.0065044 0.000344333 0.00100791 0.00159634 0.00203816 0.00229726 0.002435 0.00223673 0.00182879 0.00122541 0.000290769 -0.000785708 -0.0021039 0.00277117 0.0081538 0.01299 0.0170601 0.0200062 0.0216124 0.0218538 0.0204984 0.0176545 0.0134132 0.00793269 0.00146561 -0.000675507 0.00535255 0.0112456 0.0165493 0.0208887 0.0239203 0.0252146 0.0245014 0.0215989 0.015984 0.010561 -0.0102196 -0.00354529 -0.00506584 -0.00667524 -0.00820396 -0.00966462 -0.0110031 -0.0121078 -0.0129195 -0.0135883 -0.0131921 -0.0151018 -0.00876003 -0.00564772 -0.0130411 -0.0202744 -0.0269471 -0.0325955 -0.0367507 -0.0390677 -0.0391926 -0.0367441 -0.0319687 -0.0244043 -0.00986956 
</DataArray>
<DataArray Name="Strain_13" format="ascii" type="Float64">
0 0 0 0 0 0 0 0 0 0 0 0 0 0 0 0 0 0 0 0 0 0 0 0 0 0 0 0 0 0 0 0 0 0 0 0 0 0 0 0 0 0 0 0 0 0 0 0 0 0 0 0 0 0 0 0 0 0 0 0 0 0 0 0 0 0 0 0 0 0 0 0 0 0 0 0 0 0 0 0 0 0 0 0 0 0 0 0 0 0 0 0 0 0 0 0 0 0 0 0 0 0 0 0 0 0 0 0 0 0 0 0 0 0 0 0 0 0 0 0 0 0 0 0 0 0 0 0 0 0 0 0 0 0 0 0 0 0 0 0 0 0 0 0 0 0 0 0 0 0 0 0 0 0 0 0 0 0 0 0 0 0 0 0 0 0 0 0 0 0 0 0 0 0 0 0 0 0 0 0 0 0 0 0 0 0 0 0 0 0 0 0 0 0 0 0 0 0 0 0 0 0 0 0 0 0 0 0 0 0 0 0 0 0 0 0 0 0 0 0 0 0 0 0 0 0 0 0 0 0 0 0 0 0 0 0 0 0 0 0 0 0 0 0 0 0 0 0 0 0 0 0 0 0 0 0 0 0 0 0 0 0 0 0 0 0 0 0 0 0 0 0 0 0 0 0 0 0 0 0 0 0 0 0 0 0 0 0 
</DataArray>
<DataArray Name="Strain_23" format="ascii" type="Float64">
0 0 0 0 0 0 0 0 0 0 0 0 0 0 0 0 0 0 0 0 0 0 0 0 0 0 0 0 0 0 0 0 0 0 0 0 0 0 0 0 0 0 0 0 0 0 0 0 0 0 0 0 0 0 0 0 0 0 0 0 0 0 0 0 0 0 0 0 0 0 0 0 0 0 0 0 0 0 0 0 0 0 0 0 0 0 0 0 0 0 0 0 0 0 0 0 0 0 0 0 0 0 0 0 0 0 0 0 0 0 0 0 0 0 0 0 0 0 0 0 0 0 0 0 0 0 0 0 0 0 0 0 0 0 0 0 0 0 0 0 0 0 0 0 0 0 0 0 0 0 0 0 0 0 0 0 0 0 0 0 0 0 0 0 0 0 0 0 0 0 0 0 0 0 0 0 0 0 0 0 0 0 0 0 0 0 0 0 0 0 0 0 0 0 0 0 0 0 0 0 0 0 0 0 0 0 0 0 0 0 0 0 0 0 0 0 0 0 0 0 0 0 0 0 0 0 0 0 0 0 0 0 0 0 0 0 0 0 0 0 0 0 0 0 0 0 0 0 0 0 0 0 0 0 0 0 0 0 0 0 0 0 0 0 0 0 0 0 0 0 0 0 0 0 0 0 0 0 0 0 0 0 0 0 0 0 0 0 
</DataArray>
<DataArray Name="Strain_33" format="ascii" type="Float64">
1 1 1 1 1 1 1 1 1 1 1 1 1 1 1 1 1 1 1 1 1 1 1 1 1 1 1 1 1 1 1 1 1 1 1 1 1 1 1 1 1 1 1 1 1 1 1 1 1 1 1 1 1 1 1 1 1 1 1 1 1 1 1 1 1 1 1 1 1 1 1 1 1 1 1 1 1 1 1 1 1 1 1 1 1 1 1 1 1 1 1 1 1 1 1 1 1 1 1 1 1 1 1 1 1 1 1 1 1 1 1 1 1 1 1 1 1 1 1 1 1 1 1 1 1 1 1 1 1 1 1 1 1 1 1 1 1 1 1 1 1 1 1 1 1 1 1 1 1 1 1 1 1 1 1 1 1 1 1 1 1 1 1 1 1 1 1 1 1 1 1 1 1 1 1 1 1 1 1 1 1 1 1 1 1 1 1 1 1 1 1 1 1 1 1 1 1 1 1 1 1 1 1 1 1 1 1 1 1 1 1 1 1 1 1 1 1 1 1 1 1 1 1 1 1 1 1 1 1 1 1 1 1 1 1 1 1 1 1 1 1 1 1 1 1 1 1 1 1 1 1 1 1 1 1 1 1 1 1 1 1 1 1 1 1 1 1 1 1 1 1 1 1 1 1 1 1 1 1 1 1 1 1 1 1 1 1 1 
</DataArray>
<DataArray Name="Stress_11" format="ascii" type="Float64">
-371.365 -338.672 -306.233 -274.096 -242.459 -211.453 -181.215 -151.868 -123.546 -96.364 -70.4396 -45.8861 -370.824 -337.033 -303.398 -270.198 -237.491 -205.423 -174.135 -143.764 -114.435 -86.276 -59.4061 -33.9411 -370.121 -335.225 -300.57 -266.264 -232.475 -199.34 -167.001 -135.597 -105.265 -76.1285 -48.3141 -21.9444 -22.8034 -1.29433 18.5571 36.6634 52.9522 67.3564 79.8124 90.2712 98.6914 105.037 109.279 111.405 -9.99105 12.3411 32.9599 51.7797 68.7195 83.6996 96.6649 107.555 116.322 122.933 127.354 129.57 2.86698 26.0112 47.3922 66.9132 84.489 100.041 113.503 124.815 133.924 140.791 145.387 147.691 111.405 109.279 105.037 98.6914 90.2712 79.8124 67.3564 52.9522 36.6634 18.5571 -1.29433 -22.8034 129.57 127.354 122.933 116.322 107.555 96.6649 83.6996 68.7195 51.7797 32.9599 12.3411 -9.99105 147.691 145.387 140.791 133.924 124.815 113.503 100.041 84.489 66.9132 47.3922 26.0112 2.86698 -45.8861 -70.4396 -96.364 -123.546 -151.868 -181.215 -211.453 -242.459 -274.096 -306.233 -338.672 -371.365 -33.9411 -59.4061 -86.276 -114.435 -143.764 -174.135 -205.423 -237.491 -270.198 -303.398 -337.033 -370.824 -21.9444 -48.3141 -76.1285 -105.265 -135.597 -167.001 -199.34 -232.475 -266.264 -300.57 -335.225 -370.121 -4.12048 -4.43696 -4.75293 -5.06484 -5.372 -5.67325 -5.96742 -6.25341 -6.53005 -6.79625 -7.05089 -7.29284 -4.04263 -4.38349 -4.71922 -5.05216 -5.37991 -5.7012 -6.01457 -6.31868 -6.61223 -6.89396 -7.16266 -7.41718 -3.97466 -4.33208 -4.68873 -5.04132 -5.38865 -5.72897 -6.06069 -6.38224 -6.69212 -6.98899 -7.27156 -7.53859 -7.52106 -7.73447 -7.93212 -8.11301 -8.27628 -8.4211 -8.5467 -8.65241 -8.7377 -8.80208 -8.84517 -8.86679 -7.65644 -7.87942 -8.08519 -8.2729 -8.44179 -8.59107 -8.72021 -8.82866 -8.91593 -8.98172 -9.02571 -9.04776 -7.78898 -8.02174 -8.23601 -8.43096 -8.60589 -8.7602 -8.89339 -9.00501 -9.0947 -9.16221 -9.20733 -9.22992 -8.86679 -8.84517 -8.80208 -8.7377 -8.65241 -8.5467 -8.4211 -8.27628 -8.11301 -7.93212 -7.73447 -7.52106 -9.04776 -9.02571 -8.98172 -8.91593 -8.82866 -8.72021 -8.59107 -8.44179 -8.2729 -8.08519 -7.87942 -7.65644 -9.22992 -9.20733 -9.16221 -9.0947 -9.00501 -8.89339 -8.7602 -8.60589 -8.43096 -8.23601 -8.02174 -7.78898 -7.29284 -7.05089 -6.79625 -6.53005 -6.25341 -5.96742 -5.67325 -5.372 -5.06484 -4.75293 -4.43696 -4.12048 -7.41718 -7.16266 -6.89396 -6.61223 -6.31868 -6.01457 -5.7012 -5.37991 -5.05216 -4.71922 -4.38349 -4.04263 -7.53859 -7.27156 -6.98899 -6.69212 -6.38224 -6.06069 -5.72897 -5.38865 -5.04132 -4.68873 -4.33208 -3.97466 
</DataArray>
<DataArray Name="Stress_22" format="ascii" type="Float64">
-371.698 -338.701 -306.356 -274.29 -242.712 -211.739 -181.519 -152.165 -123.812 -96.5772 -70.5758 -45.9255 -371.143 -336.917 -303.373 -270.175 -237.452 -205.381 -174.086 -143.711 -114.383 -86.2216 -59.3548 -33.8933 -370.597 -335.104 -300.451 -266.072 -232.227 -199.052 -166.697 -135.296 -104.99 -75.9045 -48.1608 -21.8829 -22.7278 -1.08905 18.9004 37.1527 53.587 68.1315 80.72 91.2963 99.8159 106.24 110.536 112.689 -9.94825 12.3764 32.99 51.8005 68.7301 83.7056 96.6609 107.545 116.306 122.911 127.33 129.543 2.81891 25.8413 47.0878 66.4714 83.9084 99.3242 112.66 123.859 132.873 139.665 144.209 146.487 112.689 110.536 106.24 99.8159 91.2963 80.72 68.1315 53.587 37.1527 18.9004 -1.08905 -22.7278 129.543 127.33 122.911 116.306 107.545 96.6609 83.7056 68.7301 51.8005 32.99 12.3764 -9.94825 146.487 144.209 139.665 132.873 123.859 112.66 99.3242 83.9084 66.4714 47.0878 25.8413 2.81891 -45.9255 -70.5758 -96.5772 -123.812 -152.165 -181.519 -211.739 -242.712 -274.29 -306.356 -338.701 -371.698 -33.8933 -59.3548 -86.2216 -114.383 -143.711 -174.086 -205.381 -237.452 -270.175 -303.373 -336.917 -371.143 -21.8829 -48.1608 -75.9045 -104.99 -135.296 -166.697 -199.052 -232.227 -266.072 -300.451 -335.104 -370.597 -4.0545 -4.36629 -4.69295 -5.01363 -5.32993 -5.63983 -5.94185 -6.2347 -6.51694 -6.78734 -7.04474 -7.28799 -4.05277 -4.38644 -4.72065 -5.05203 -5.37812 -5.69789 -6.01 -6.31302 -6.60573 -6.88691 -7.15529 -7.40976 -4.05053 -4.40347 -4.74816 -5.09046 -5.42724 -5.75765 -6.08033 -6.39406 -6.69756 -6.98961 -7.26903 -7.53454 -7.51614 -7.72821 -7.92343 -8.10108 -8.26049 -8.40112 -8.5225 -8.62421 -8.70597 -8.76751 -8.80862 -8.8292 -7.64919 -7.87254 -8.07888 -8.26726 -8.43689 -8.58701 -8.71693 -8.82611 -8.91403 -8.98033 -9.0247 -9.04691 -7.78498 -8.01921 -8.23613 -8.43471 -8.61394 -8.77288 -8.91076 -9.02684 -9.12046 -9.19112 -9.23846 -9.26221 -8.8292 -8.80862 -8.76751 -8.70597 -8.62421 -8.5225 -8.40112 -8.26049 -8.10108 -7.92343 -7.72821 -7.51614 -9.04691 -9.0247 -8.98033 -8.91403 -8.82611 -8.71693 -8.58701 -8.43689 -8.26726 -8.07888 -7.87254 -7.64919 -9.26221 -9.23846 -9.19112 -9.12046 -9.02684 -8.91076 -8.77288 -8.61394 -8.43471 -8.23613 -8.01921 -7.78498 -7.28799 -7.04474 -6.78734 -6.51694 -6.2347 -5.94185 -5.63983 -5.32993 -5.01363 -4.69295 -4.36629 -4.0545 -7.40976 -7.15529 -6.88691 -6.60573 -6.31302 -6.01 -5.69789 -5.37812 -5.05203 -4.72065 -4.38644 -4.05277 -7.53454 -7.26903 -6.98961 -6.69756 -6.39406 -6.08033 -5.75765 -5.42724 -5.09046 -4.74816 -4.40347 -4.05053 
</DataArray>
<DataArray Name="Stress_12" format="ascii" type="Float64">
0.0720688 -0.0450234 0.0374773 0.0625986 0.0968901 0.139829 0.189313 0.239497 0.292103 0.342559 0.387425 0.426916 0.037073 0.0182163 0.0315386 0.0284916 0.0244653 0.0208284 0.0159857 0.012318 0.00737886 0.0013754 -0.00177122 -0.00679553 -0.0418912 0.0592524 -0.0206373 -0.0422966 -0.0752021 -0.118013 -0.164508 -0.215687 -0.265807 -0.314285 -0.359842 -0.398332 0.457139 0.477762 0.486177 0.481803 0.465244 0.435264 0.392078 0.338949 0.274099 0.202269 0.123572 0.0417911 -0.0105856 -0.0129422 -0.0162764 -0.0163372 -0.0186336 -0.0180137 -0.0154641 -0.0155353 -0.0122924 -0.00890402 -0.00557493 -0.00190508 -0.428761 -0.449001 -0.458416 -0.455735 -0.440251 -0.411713 -0.373388 -0.321249 -0.260366 -0.192744 -0.117532 -0.0397742 -0.0417911 -0.123572 -0.202269 -0.274099 -0.338949 -0.392078 -0.435264 -0.465244 -0.481803 -0.486177 -0.477762 -0.457139 0.00190508 0.00557493 0.00890402 0.0122924 0.0155353 0.0154641 0.0180137 0.0186336 0.0163372 0.0162764 0.0129422 0.0105856 0.0397742 0.117532 0.192744 0.260366 0.321249 0.373388 0.411713 0.440251 0.455735 0.458416 0.449001 0.428761 -0.426916 -0.387425 -0.342559 -0.292103 -0.239497 -0.189313 -0.139829 -0.0968901 -0.0625986 -0.0374773 0.0450234 -0.0720688 0.00679553 0.00177122 -0.0013754 -0.00737886 -0.012318 -0.0159857 -0.0208284 -0.0244653 -0.0284916 -0.0315386 -0.0182163 -0.037073 0.398332 0.359842 0.314285 0.265807 0.215687 0.164508 0.118013 0.0752021 0.0422966 0.0206373 -0.0592524 0.0418912 0.0042582 -0.00440045 -0.00666005 -0.00899961 -0.010209 -0.0105062 -0.00996687 -0.00870371 -0.00689561 -0.00468569 -0.00223025 0.000281463 0.00365004 0.00629248 0.00549674 0.00566186 0.00538315 0.00504496 0.00458468 0.00402696 0.00341834 0.00278137 0.00211078 0.00147721 0.00411235 0.0101685 0.0133204 0.0153102 0.0163304 0.0162783 0.0153129 0.0135816 0.011228 0.00844772 0.00543383 0.00235323 0.00271019 0.00489921 0.00673711 0.00812745 0.00899087 0.00929827 0.00905341 0.00824864 0.00698083 0.00529034 0.00330472 0.00112171 0.000876633 0.000327381 -0.000121155 -0.000510591 -0.000762002 -0.000931979 -0.00101459 -0.000957197 -0.00084924 -0.000665146 -0.000419965 -0.000143473 -0.000610676 -0.00330531 -0.00558889 -0.00735608 -0.00854108 -0.00910581 -0.00900524 -0.00833596 -0.00710845 -0.00541253 -0.00339744 -0.00115467 -0.00112171 -0.00330472 -0.00529034 -0.00698083 -0.00824864 -0.00905341 -0.00929827 -0.00899087 -0.00812745 -0.00673711 -0.00489921 -0.00271019 0.000143473 0.000419965 0.000665146 0.00084924 0.000957197 0.00101459 0.000931979 0.000762002 0.000510591 0.000121155 -0.000327381 -0.000876633 0.00115467 0.00339744 0.00541253 0.00710845 0.00833596 0.00900524 0.00910581 0.00854108 0.00735608 0.00558889 0.00330531 0.000610676 -0.000281463 0.00223025 0.00468569 0.00689561 0.00870371 0.00996687 0.0105062 0.010209 0.00899961 0.00666005 0.00440045 -0.0042582 -0.00147721 -0.00211078 -0.00278137 -0.00341834 -0.00402696 -0.00458468 -0.00504496 -0.00538315 -0.00566186 -0.00549674 -0.00629248 -0.00365004 -0.00235323 -0.00543383 -0.00844772 -0.011228 -0.0135816 -0.0153129 -0.0162783 -0.0163304 -0.0153102 -0.0133204 -0.0101685 -0.00411235 
</DataArray>
<DataArray Name="Stress_13" format="ascii" type="Float64">
0 0 0 0 0 0 0 0 0 0 0 0 0 0 0 0 0 0 0 0 0 0 0 0 0 0 0 0 0 0 0 0 0 0 0 0 0 0 0 0 0 0 0 0 0 0 0 0 0 0 0 0 0 0 0 0 0 0 0 0 0 0 0 0 0 0 0 0 0 0 0 0 0 0 0 0 0 0 0 0 0 0 0 0 0 0 0 0 0 0 0 0 0 0 0 0 0 0 0 0 0 0 0 0 0 0 0 0 0 0 0 0 0 0 0 0 0 0 0 0 0 0 0 0 0 0 0 0 0 0 0 0 0 0 0 0 0 0 0 0 0 0 0 0 0 0 0 0 0 0 0 0 0 0 0 0 0 0 0 0 0 0 0 0 0 0 0 0 0 0 0 0 0 0 0 0 0 0 0 0 0 0 0 0 0 0 0 0 0 0 0 0 0 0 0 0 0 0 0 0 0 0 0 0 0 0 0 0 0 0 0 0 0 0 0 0 0 0 0 0 0 0 0 0 0 0 0 0 0 0 0 0 0 0 0 0 0 0 0 0 0 0 0 0 0 0 0 0 0 0 0 0 0 0 0 0 0 0 0 0 0 0 0 0 0 0 0 0 0 0 0 0 0 0 0 0 0 0 0 0 0 0 0 0 0 0 0 0 
</DataArray>
<DataArray Name="Stress_23" format="ascii" type="Float64">