<?xml version="1.0"?>
<VTKFile byte_order="LittleEndian" type="UnstructuredGrid" version="0.1">
<UnstructuredGrid>
<Piece NumberOfCells="288" NumberOfPoints="384">
<PointData>
<DataArray Name="Warping_X" format="ascii" type="Float64">
-0 -0 0 0 0 0 0 0 0 0 0 0 0 0 -0 0 0 0 0 0 0 0 0 0 0 0 0 0 0 0 0 0 0 0 0 0 0 0 0 0 0 0 0 0 0 0 0 0 0 0 0 0 0 0 0 0 0 0 0 0 0 0 0 0 0 0 0 0 0 0 0 0 0 0 0 0 -0 0 0 0 0 0 0 0 0 0 0 0 0 0 0 0 0 0 0 0 0 0 0 0 -0 0 0 0 0 0 0 0 0 0 0 0 0 0 0 0 0 0 0 0 0 0 0 0 0 0 0 0 0 0 0 0 0 0 0 0 0 0 0 0 0 0 0 0 0 0 0 0 0 0 0 0 0 0 0 0 0 0 0 0 0 0 0 0 0 0 0 0 0 0 0 0 0 0 0 0 0 0 0 0 0 0 0 0 0 0 0 0 0 0 0 0 0 0 0 0 -0 -0 0 0 0 0 0 0 0 0 0 0 0 0 0 0 0 0 0 0 0 0 0 0 0 0 0 0 0 0 0 0 0 0 0 0 0 0 0 0 0 0 0 0 0 0 0 0 0 0 0 0 0 0 0 0 0 0 0 0 0 0 0 0 0 0 0 0 0 0 0 0 0 0 0 0 0 0 0 0 0 0 0 0 0 0 0 0 0 0 0 0 0 0 0 0 -0 0 0 0 0 0 0 0 0 0 0 0 0 0 0 0 0 0 0 0 0 0 0 0 0 0 0 0 0 0 0 0 0 0 0 0 0 0 0 0 0 0 0 0 0 0 0 0 0 0 0 0 0 0 0 0 0 0 0 0 0 0 0 0 0 0 0 0 0 0 0 0 0 0 0 0 0 0 0 0 0 0 0 0 0 0 0 0 0 0 0 0 
</DataArray>
<DataArray Name="Warping_Y" format="ascii" type="Float64">
0 -0 0 0 0 0 0 0 0 0 0 0 0 0 -0 0 0 0 0 0 0 0 0 0 0 0 0 0 0 0 0 0 0 0 0 0 0 0 0 0 0 0 0 0 0 0 0 0 0 0 0 0 -0 0 0 0 0 0 0 0 0 0 0 0 -0 0 0 0 0 0 0 0 0 0 0 0 0 0 0 0 0 0 0 0 0 0 0 0 0 0 0 0 0 0 0 0 0 0 0 0 -0 0 0 0 0 0 0 0 0 0 0 0 0 0 0 0 0 0 0 0 0 0 0 0 0 0 0 0 0 0 0 0 0 0 0 0 0 0 0 0 0 0 0 0 0 0 0 0 0 0 0 0 0 0 0 0 0 0 0 0 0 0 0 0 0 0 0 0 0 0 0 0 0 0 0 0 0 0 0 0 0 0 0 0 0 0 0 0 0 0 0 0 0 0 0 0 -0 0 0 0 0 0 0 0 0 0 0 0 0 0 0 0 0 0 0 0 0 0 0 0 0 0 0 0 0 0 0 0 0 0 0 0 0 0 0 0 0 0 0 0 0 0 0 0 -0 0 0 0 0 0 0 0 0 0 0 0 0 0 0 0 0 0 0 0 0 0 0 0 0 0 0 0 0 0 0 0 0 0 0 0 0 0 0 0 0 0 0 0 0 0 0 0 -0 0 0 0 0 0 0 0 0 0 0 0 0 0 0 0 0 0 0 0 0 0 0 0 0 0 0 0 0 0 0 0 0 0 0 0 0 0 0 0 0 0 0 0 0 0 0 0 0 0 0 0 0 0 0 0 0 0 0 0 0 0 0 0 0 0 0 0 0 0 0 0 0 0 0 0 0 0 0 0 0 0 0 0 0 0 0 0 0 0 0 0 
</DataArray>
<DataArray Name="Warping_Z" format="ascii" type="Float64">
0 0 0 0 0 0 0 0 0 0 0 0 0 0 0 0 0 0 0 0 0 0 0 0 0 0 0 0 0 0 0 0 0 0 0 0 0 0 0 0 0 0 0 0 0 0 0 0 0 0 0 0 0 0 0 0 0 0 0 0 0 0 0 0 0 0 0 0 0 0 0 0 0 0 0 0 0 0 0 0 0 0 0 0 0 0 0 0 0 0 0 0 0 0 0 0 0 0 0 0 0 0 0 0 0 0 0 0 0 0 0 0 0 0 0 0 0 0 0 0 0 0 0 0 0 0 0 0 0 0 0 0 0 0 0 0 0 0 0 0 0 0 0 0 0 0 0 0 0 0 0 0 0 0 0 0 0 0 0 0 0 0 0 0 0 0 0 0 0 0 0 0 0 0 0 0 0 0 0 0 0 0 0 0 0 0 0 0 0 0 0 0 0 0 0 0 0 0 0 0 0 0 0 0 0 0 0 0 0 0 0 0 0 0 0 0 0 0 0 0 0 0 0 0 0 0 0 0 0 0 0 0 0 0 0 0 0 0 0 0 0 0 0 0 0 0 0 0 0 0 0 0 0 0 0 0 0 0 0 0 0 0 0 0 0 0 0 0 0 0 0 0 0 0 0 0 0 0 0 0 0 0 0 0 0 0 0 0 0 0 0 0 0 0 0 0 0 0 0 0 0 0 0 0 0 0 0 0 0 0 0 0 0 0 0 0 0 0 0 0 0 0 0 0 0 0 0 0 0 0 0 0 0 0 0 0 0 0 0 0 0 0 0 0 0 0 0 0 0 0 0 0 0 0 0 0 0 0 0 0 0 0 0 0 0 0 0 0 0 0 0 0 0 0 0 0 0 0 0 0 0 0 0 0 
</DataArray>
</PointData>
<CellData>
<DataArray Name="MaterialId" format="ascii" type="Float64">
1 1 1 1 1 1 1 1 1 1 1 1 1 1 1 1 1 1 1 1 1 1 1 1 1 1 1 1 1 1 1 1 1 1 1 1 1 1 1 1 1 1 1 1 1 1 1 1 1 1 1 1 1 1 1 1 1 1 1 1 1 1 1 1 1 1 1 1 1 1 1 1 1 1 1 1 1 1 1 1 1 1 1 1 1 1 1 1 1 1 1 1 1 1 1 1 1 1 1 1 1 1 1 1 1 1 1 1 1 1 1 1 1 1 1 1 1 1 1 1 1 1 1 1 1 1 1 1 1 1 1 1 1 1 1 1 1 1 1 1 1 1 1 1 2 2 2 2 2 2 2 2 2 2 2 2 2 2 2 2 2 2 2 2 2 2 2 2 2 2 2 2 2 2 2 2 2 2 2 2 2 2 2 2 2 2 2 2 2 2 2 2 2 2 2 2 2 2 2 2 2 2 2 2 2 2 2 2 2 2 2 2 2 2 2 2 2 2 2 2 2 2 2 2 2 2 2 2 2 2 2 2 2 2 2 2 2 2 2 2 2 2 2 2 2 2 2 2 2 2 2 2 2 2 2 2 2 2 2 2 2 2 2 2 2 2 2 2 2 2 2 2 2 2 2 2 2 2 2 2 2 2 2 2 2 2 2 2 
</DataArray>
<DataArray Name="FiberAngle" format="ascii" type="Float64">
0 0 0 0 0 0 0 0 0 0 0 0 0 0 0 0 0 0 0 0 0 0 0 0 0 0 0 0 0 0 0 0 0 0 0 0 0 0 0 0 0 0 0 0 0 0 0 0 0 0 0 0 0 0 0 0 0 0 0 0 0 0 0 0 0 0 0 0 0 0 0 0 0 0 0 0 0 0 0 0 0 0 0 0 0 0 0 0 0 0 0 0 0 0 0 0 0 0 0 0 0 0 0 0 0 0 0 0 0 0 0 0 0 0 0 0 0 0 0 0 0 0 0 0 0 0 0 0 0 0 0 0 0 0 0 0 0 0 0 0 0 0 0 0 0 0 0 0 0 0 0 0 0 0 0 0 0 0 0 0 0 0 0 0 0 0 0 0 0 0 0 0 0 0 0 0 0 0 0 0 0 0 0 0 0 0 0 0 0 0 0 0 0 0 0 0 0 0 0 0 0 0 0 0 0 0 0 0 0 0 0 0 0 0 0 0 0 0 0 0 0 0 0 0 0 0 0 0 0 0 0 0 0 0 0 0 0 0 0 0 0 0 0 0 0 0 0 0 0 0 0 0 0 0 0 0 0 0 0 0 0 0 0 0 0 0 0 0 0 0 0 0 0 0 0 0 0 0 0 0 0 0 0 0 0 0 0 0 
</DataArray>
<DataArray Name="Strain_11" format="ascii" type="Float64">
0 0 0 0 0 0 0 0 0 0 0 0 0 0 0 0 0 0 0 0 0 0 0 0 0 0 0 0 0 0 0 0 0 0 0 0 0 0 0 0 0 0 0 0 0 0 0 0 0 0 0 0 0 0 0 0 0 0 0 0 0 0 0 0 0 0 0 0 0 0 0 0 0 0 0 0 0 0 0 0 0 0 0 0 0 0 0 0 0 0 0 0 0 0 0 0 0 0 0 0 0 0 0 0 0 0 0 0 0 0 0 0 0 0 0 0 0 0 0 0 0 0 0 0 0 0 0 0 0 0 0 0 0 0 0 0 0 0 0 0 0 0 0 0 0 0 0 0 0 0 0 0 0 0 0 0 0 0 0 0 0 0 0 0 0 0 0 0 0 0 0 0 0 0 0 0 0 0 0 0 0 0 0 0 0 0 0 0 0 0 0 0 0 0 0 0 0 0 0 0 0 0 0 0 0 0 0 0 0 0 0 0 0 0 0 0 0 0 0 0 0 0 0 0 0 0 0 0 0 0 0 0 0 0 0 0 0 0 0 0 0 0 0 0 0 0 0 0 0 0 0 0 0 0 0 0 0 0 0 0 0 0 0 0 0 0 0 0 0 0 0 0 0 0 0 0 0 0 0 0 0 0 0 0 0 0 0 0 
</DataArray>
<DataArray Name="Strain_22" format="ascii" type="Float64">
0 0 0 0 0 0 0 0 0 0 0 0 0 0 0 0 0 0 0 0 0 0 0 0 0 0 0 0 0 0 0 0 0 0 0 0 0 0 0 0 0 0 0 0 0 0 0 0 0 0 0 0 0 0 0 0 0 0 0 0 0 0 0 0 0 0 0 0 0 0 0 0 0 0 0 0 0 0 0 0 0 0 0 0 0 0 0 0 0 0 0 0 0 0 0 0 0 0 0 0 0 0 0 0 0 0 0 0 0 0 0 0 0 0 0 0 0 0 0 0 0 0 0 0 0 0 0 0 0 0 0 0 0 0 0 0 0 0 0 0 0 0 0 0 0 0 0 0 0 0 0 0 0 0 0 0 0 0 0 0 0 0 0 0 0 0 0 0 0 0 0 0 0 0 0 0 0 0 0 0 0 0 0 0 0 0 0 0 0 0 0 0 0 0 0 0 0 0 0 0 0 0 0 0 0 0 0 0 0 0 0 0 0 0 0 0 0 0 0 0 0 0 0 0 0 0 0 0 0 0 0 0 0 0 0 0 0 0 0 0 0 0 0 0 0 0 0 0 0 0 0 0 0 0 0 0 0 0 0 0 0 0 0 0 0 0 0 0 0 0 0 0 0 0 0 0 0 0 0 0 0 0 0 0 0 0 0 0 
</DataArray>
<DataArray Name="Strain_12" format="ascii" type="Float64">
0 0 0 0 0 0 0 0 0 0 0 0 0 0 0 0 0 0 0 0 0 0 0 0 0 0 0 0 0 0 0 0 0 0 0 0 0 0 0 0 0 0 0 0 0 0 0 0 0 0 0 0 0 0 0 0 0 0 0 0 0 0 0 0 0 0 0 0 0 0 0 0 0 0 0 0 0 0 0 0 0 0 0 0 0 0 0 0 0 0 0 0 0 0 0 0 0 0 0 0 0 0 0 0 0 0 0 0 0 0 0 0 0 0 0 0 0 0 0 0 0 0 0 0 0 0 0 0 0 0 0 0 0 0 0 0 0 0 0 0 0 0 0 0 0 0 0 0 0 0 0 0 0 0 0 0 0 0 0 0 0 0 0 0 0 0 0 0 0 0 0 0 0 0 0 0 0 0 0 0 0 0 0 0 0 0 0 0 0 0 0 0 0 0 0 0 0 0 0 0 0 0 0 0 0 0 0 0 0 0 0 0 0 0 0 0 0 0 0 0 0 0 0 0 0 0 0 0 0 0 0 0 0 0 0 0 0 0 0 0 0 0 0 0 0 0 0 0 0 0 0 0 0 0 0 0 0 0 0 0 0 0 0 0 0 0 0 0 0 0 0 0 0 0 0 0 0 0 0 0 0 0 0 0 0 0 0 0 
</DataArray>
<DataArray Name="Strain_13" format="ascii" type="Float64">
-64.8025 -62.2603 -59.9496 -58.0158 -56.4764 -55.3334 -54.5791 -54.1972 -54.1632 -54.4437 -55.0057 -55.807 -64.6726 -62.0864 -59.8558 -57.9992 -56.5257 -55.436 -54.7229 -54.3705 -54.3545 -54.6439 -55.2045 -55.9965 -64.5249 -61.8896 -59.7311 -57.9468 -56.5363 -55.5007 -54.8318 -54.5149 -54.5257 -54.8327 -55.4036 -56.1996 -56.8016 -57.9418 -59.1794 -60.4639 -61.7471 -62.9852 -64.1335 -65.1541 -66.0126 -66.6819 -67.1402 -67.3729 -56.9751 -58.0937 -59.3051 -60.5619 -61.8165 -63.025 -64.146 -65.1415 -65.9792 -66.6319 -67.0788 -67.3057 -57.1761 -58.2871 -59.487 -60.7303 -61.97 -63.1622 -64.2669 -65.248 -66.0733 -66.7158 -67.1556 -67.379 -67.3729 -67.1402 -66.6819 -66.0126 -65.1541 -64.1335 -62.9852 -61.7471 -60.4639 -59.1794 -57.9418 -56.8016 -67.3057 -67.0788 -66.6319 -65.9792 -65.1415 -64.146 -63.025 -61.8165 -60.5619 -59.3051 -58.0937 -56.9751 -67.379 -67.1556 -66.7158 -66.0733 -65.248 -64.2669 -63.1622 -61.97 -60.7303 -59.487 -58.2871 -57.1761 -55.807 -55.0057 -54.4437 -54.1632 -54.1972 -54.5791 -55.3334 -56.4764 -58.0158 -59.9496 -62.2603 -64.8025 -55.9965 -55.2045 -54.6439 -54.3545 -54.3705 -54.7229 -55.436 -56.5257 -57.9992 -59.8558 -62.0864 -64.6726 -56.1996 -55.4036 -54.8327 -54.5257 -54.5149 -54.8318 -55.5007 -56.5363 -57.9468 -59.7311 -61.8896 -64.5249 77.2076 73.3966 68.5891 62.953 56.5935 49.5876 42.021 33.9929 25.6131 17.0111 8.27727 -0.467125 72.6663 68.8665 64.2244 58.7966 52.6638 45.9029 38.5983 30.8451 22.751 14.433 5.99041 -2.46429 68.459 64.6578 60.1621 54.9059 48.9727 42.4253 35.3477 27.8282 19.9756 11.9071 3.71391 -4.49585 -9.09753 -17.4977 -25.5581 -33.1618 -40.2048 -46.6016 -52.2557 -57.093 -61.0435 -64.0559 -66.0875 -67.1096 -10.8118 -18.9371 -26.731 -34.09 -40.9081 -47.0959 -52.569 -57.2492 -61.0743 -63.9899 -65.9565 -66.9458 -12.6022 -20.4908 -28.0589 -35.2087 -41.8353 -47.8465 -53.1622 -57.7117 -61.4296 -64.263 -66.1736 -67.1355 -67.1096 -66.0875 -64.0559 -61.0435 -57.093 -52.2557 -46.6016 -40.2048 -33.1618 -25.5581 -17.4977 -9.09753 -66.9458 -65.9565 -63.9899 -61.0743 -57.2492 -52.569 -47.0959 -40.9081 -34.09 -26.731 -18.9371 -10.8118 -67.1355 -66.1736 -64.263 -61.4296 -57.7117 -53.1622 -47.8465 -41.8353 -35.2087 -28.0589 -20.4908 -12.6022 -0.467125 8.27727 17.0111 25.6131 33.9929 42.021 49.5876 56.5935 62.953 68.5891 73.3966 77.2076 -2.46429 5.99041 14.433 22.751 30.8451 38.5983 45.9029 52.6638 58.7966 64.2244 68.8665 72.6663 -4.49585 3.71391 11.9071 19.9756 27.8282 35.3477 42.4253 48.9727 54.9059 60.1621 64.6578 68.459 
</DataArray>
<DataArray Name="Strain_23" format="ascii" type="Float64">
0.0486432 0.575731 1.30113 2.25552 3.37656 4.60069 5.86444 7.1095 8.27948 9.32817 10.2129 10.8964 0.0126915 0.624679 1.34911 2.28419 3.37957 4.5721 5.80174 7.01073 8.14681 9.16325 10.0182 10.6774 0.0610514 0.609347 1.3317 2.2671 3.35525 4.53515 5.74743 6.93698 8.05348 9.05062 9.88668 10.5298 11.3516 11.5584 11.5033 11.1816 10.5999 9.76689 8.70013 7.42425 5.96923 4.37033 2.66524 0.895655 11.1143 11.3089 11.2485 10.9296 10.3567 9.53982 8.49572 7.2482 5.82699 4.26572 2.60135 0.874132 10.9547 11.1413 11.0771 10.7587 10.1919 9.38584 8.3565 7.12826 5.72964 4.1943 2.55769 0.859341 -0.895655 -2.66524 -4.37033 -5.96923 -7.42425 -8.70013 -9.76689 -10.5999 -11.1816 -11.5033 -11.5584 -11.3516 -0.874132 -2.60135 -4.26572 -5.82699 -7.2482 -8.49572 -9.53982 -10.3567 -10.9296 -11.2485 -11.3089 -11.1143 -0.859341 -2.55769 -4.1943 -5.72964 -7.12826 -8.3565 -9.38584 -10.1919 -10.7587 -11.0771 -11.1413 -10.9547 -10.8964 -10.2129 -9.32817 -8.27948 -7.1095 -5.86444 -4.60069 -3.37656 -2.25552 -1.30113 -0.575731 -0.0486432 -10.6774 -10.0182 -9.16325 -8.14681 -7.01073 -5.80174 -4.5721 -3.37957 -2.28419 -1.34911 -0.624679 -0.0126915 -10.5298 -9.88668 -9.05062 -8.05348 -6.93698 -5.74743 -4.53515 -3.35525 -2.2671 -1.3317 -0.609347 -0.0610514 4.7629 13.7725 22.3445 30.2842 37.4945 43.9065 49.4465 54.0601 57.6888 60.3185 61.9272 62.497 4.64426 13.2686 21.5483 29.2295 36.2117 42.4185 47.7834 52.2484 55.7735 58.3265 59.8857 60.4435 4.47593 12.9212 20.9615 28.4157 35.1997 41.2262 46.4346 50.7711 54.2001 56.6865 58.1993 58.7414 62.0405 60.5792 58.1414 54.7722 50.5468 45.5257 39.7895 33.4321 26.5545 19.2673 11.6804 3.9136 60.0094 58.6014 56.2465 52.994 48.9068 44.0507 38.5021 32.3507 25.6972 18.6457 11.3041 3.78747 58.3239 56.959 54.6722 51.51 47.5404 42.8222 37.4278 31.449 24.9808 18.1272 10.9901 3.68189 -3.9136 -11.6804 -19.2673 -26.5545 -33.4321 -39.7895 -45.5257 -50.5468 -54.7722 -58.1414 -60.5792 -62.0405 -3.78747 -11.3041 -18.6457 -25.6972 -32.3507 -38.5021 -44.0507 -48.9068 -52.994 -56.2465 -58.6014 -60.0094 -3.68189 -10.9901 -18.1272 -24.9808 -31.449 -37.4278 -42.8222 -47.5404 -51.51 -54.6722 -56.959 -58.3239 -62.497 -61.9272 -60.3185 -57.6888 -54.0601 -49.4465 -43.9065 -37.4945 -30.2842 -22.3445 -13.7725 -4.7629 -60.4435 -59.8857 -58.3265 -55.7735 -52.2484 -47.7834 -42.4185 -36.2117 -29.2295 -21.5483 -13.2686 -4.64426 -58.7414 -58.1993 -56.6865 -54.2001 -50.7711 -46.4346 -41.2262 -35.1997 -28.4157 -20.9615 -12.9212 -4.47593 
</DataArray>
<DataArray Name="Strain_33" format="ascii" type="Float64">
0 0 0 0 0 0 0 0 0 0 0 0 0 0 0 0 0 0 0 0 0 0 0 0 0 0 0 0 0 0 0 0 0 0 0 0 0 0 0 0 0 0 0 0 0 0 0 0 0 0 0 0 0 0 0 0 0 0 0 0 0 0 0 0 0 0 0 0 0 0 0 0 0 0 0 0 0 0 0 0 0 0 0 0 0 0 0 0 0 0 0 0 0 0 0 0 0 0 0 0 0 0 0 0 0 0 0 0 0 0 0 0 0 0 0 0 0 0 0 0 0 0 0 0 0 0 0 0 0 0 0 0 0 0 0 0 0 0 0 0 0 0 0 0 0 0 0 0 0 0 0 0 0 0 0 0 0 0 0 0 0 0 0 0 0 0 0 0 0 0 0 0 0 0 0 0 0 0 0 0 0 0 0 0 0 0 0 0 0 0 0 0 0 0 0 0 0 0 0 0 0 0 0 0 0 0 0 0 0 0 0 0 0 0 0 0 0 0 0 0 0 0 0 0 0 0 0 0 0 0 0 0 0 0 0 0 0 0 0 0 0 0 0 0 0 0 0 0 0 0 0 0 0 0 0 0 0 0 0 0 0 0 0 0 0 0 0 0 0 0 0 0 0 0 0 0 0 0 0 0 0 0 0 0 0 0 0 0 
</DataArray>
<DataArray Name="Stress_11" format="ascii" type="Float64">
0 0 0 0 0 0 0 0 0 0 0 0 0 0 0 0 0 0 0 0 0 0 0 0 0 0 0 0 0 0 0 0 0 0 0 0 0 0 0 0 0 0 0 0 0 0 0 0 0 0 0 0 0 0 0 0 0 0 0 0 0 0 0 0 0 0 0 0 0 0 0 0 0 0 0 0 0 0 0 0 0 0 0 0 0 0 0 0 0 0 0 0 0 0 0 0 0 0 0 0 0 0 0 0 0 0 0 0 0 0 0 0 0 0 0 0 0 0 0 0 0 0 0 0 0 0 0 0 0 0 0 0 0 0 0 0 0 0 0 0 0 0 0 0 0 0 0 0 0 0 0 0 0 0 0 0 0 0 0 0 0 0 0 0 0 0 0 0 0 0 0 0 0 0 0 0 0 0 0 0 0 0 0 0 0 0 0 0 0 0 0 0 0 0 0 0 0 0 0 0 0 0 0 0 0 0 0 0 0 0 0 0 0 0 0 0 0 0 0 0 0 0 0 0 0 0 0 0 0 0 0 0 0 0 0 0 0 0 0 0 0 0 0 0 0 0 0 0 0 0 0 0 0 0 0 0 0 0 0 0 0 0 0 0 0 0 0 0 0 0 0 0 0 0 0 0 0 0 0 0 0 0 0 0 0 0 0 0 
</DataArray>
<DataArray Name="Stress_22" format="ascii" type="Float64">
0 0 0 0 0 0 0 0 0 0 0 0 0 0 0 0 0 0 0 0 0 0 0 0 0 0 0 0 0 0 0 0 0 0 0 0 0 0 0 0 0 0 0 0 0 0 0 0 0 0 0 0 0 0 0 0 0 0 0 0 0 0 0 0 0 0 0 0 0 0 0 0 0 0 0 0 0 0 0 0 0 0 0 0 0 0 0 0 0 0 0 0 0 0 0 0 0 0 0 0 0 0 0 0 0 0 0 0 0 0 0 0 0 0 0 0 0 0 0 0 0 0 0 0 0 0 0 0 0 0 0 0 0 0 0 0 0 0 0 0 0 0 0 0 0 0 0 0 0 0 0 0 0 0 0 0 0 0 0 0 0 0 0 0 0 0 0 0 0 0 0 0 0 0 0 0 0 0 0 0 0 0 0 0 0 0 0 0 0 0 0 0 0 0 0 0 0 0 0 0 0 0 0 0 0 0 0 0 0 0 0 0 0 0 0 0 0 0 0 0 0 0 0 0 0 0 0 0 0 0 0 0 0 0 0 0 0 0 0 0 0 0 0 0 0 0 0 0 0 0 0 0 0 0 0 0 0 0 0 0 0 0 0 0 0 0 0 0 0 0 0 0 0 0 0 0 0 0 0 0 0 0 0 0 0 0 0 0 
</DataArray>
<DataArray Name="Stress_12" format="ascii" type="Float64">
0 0 0 0 0 0 0 0 0 0 0 0 0 0 0 0 0 0 0 0 0 0 0 0 0 0 0 0 0 0 0 0 0 0 0 0 0 0 0 0 0 0 0 0 0 0 0 0 0 0 0 0 0 0 0 0 0 0 0 0 0 0 0 0 0 0 0 0 0 0 0 0 0 0 0 0 0 0 0 0 0 0 0 0 0 0 0 0 0 0 0 0 0 0 0 0 0 0 0 0 0 0 0 0 0 0 0 0 0 0 0 0 0 0 0 0 0 0 0 0 0 0 0 0 0 0 0 0 0 0 0 0 0 0 0 0 0 0 0 0 0 0 0 0 0 0 0 0 0 0 0 0 0 0 0 0 0 0 0 0 0 0 0 0 0 0 0 0 0 0 0 0 0 0 0 0 0 0 0 0 0 0 0 0 0 0 0 0 0 0 0 0 0 0 0 0 0 0 0 0 0 0 0 0 0 0 0 0 0 0 0 0 0 0 0 0 0 0 0 0 0 0 0 0 0 0 0 0 0 0 0 0 0 0 0 0 0 0 0 0 0 0 0 0 0 0 0 0 0 0 0 0 0 0 0 0 0 0 0 0 0 0 0 0 0 0 0 0 0 0 0 0 0 0 0 0 0 0 0 0 0 0 0 0 0 0 0 0 
</DataArray>
<DataArray Name="Stress_13" format="ascii" type="Float64">
-2700.12 -2594.2 -2497.92 -2417.35 -2353.2 -2305.58 -2274.15 -2258.23 -2256.82 -2268.51 -2291.92 -2325.31 -2694.71 -2586.95 -2494.01 -2416.65 -2355.26 -2309.85 -2280.14 -2265.46 -2264.79 -2276.85 -2300.21 -2333.21 -2688.56 -2578.75 -2488.82 -2414.47 -2355.7 -2312.55 -2284.68 -2271.47 -2271.92 -2284.71 -2308.5 -2341.67 -2366.75 -2414.26 -2465.83 -2519.35 -2572.82 -2624.4 -2672.25 -2714.77 -2750.55 -2778.43 -2797.53 -2807.23 -2373.98 -2420.59 -2471.06 -2523.43 -2575.71 -2626.06 -2672.77 -2714.25 -2749.16 -2776.35 -2794.97 -2804.42 -2382.36 -2428.65 -2478.64 -2530.45 -2582.1 -2631.78 -2677.81 -2718.69 -2753.08 -2779.85 -2798.17 -2807.48 -2807.23 -2797.53 -2778.43 -2750.55 -2714.77 -2672.25 -2624.4 -2572.82 -2519.35 -2465.83 -2414.26 -2366.75 -2804.42 -2794.97 -2776.35 -2749.16 -2714.25 -2672.77 -2626.06 -2575.71 -2523.43 -2471.06 -2420.59 -2373.98 -2807.48 -2798.17 -2779.85 -2753.08 -2718.69 -2677.81 -2631.78 -2582.1 -2530.45 -2478.64 -2428.65 -2382.36 -2325.31 -2291.92 -2268.51 -2256.82 -2258.23 -2274.15 -2305.58 -2353.2 -2417.35 -2497.92 -2594.2 -2700.12 -2333.21 -2300.21 -2276.85 -2264.79 -2265.46 -2280.14 -2309.85 -2355.26 -2416.65 -2494.01 -2586.95 -2694.71 -2341.67 -2308.5 -2284.71 -2271.92 -2271.47 -2284.68 -2312.55 -2355.7 -2414.47 -2488.82 -2578.75 -2688.56 32.1701 30.5822 28.579 26.2306 23.5808 20.6617 17.5089 14.1638 10.6722 7.08802 3.44889 -0.194637 30.2779 28.6946 26.7604 24.4988 21.9434 19.1264 16.0827 12.8522 9.47968 6.0138 2.49602 -1.0268 28.5248 26.941 25.0677 22.8776 20.4055 17.6774 14.7283 11.5952 8.32321 4.96132 1.54747 -1.87329 -3.79067 -7.29078 -10.6493 -13.8175 -16.7521 -19.4175 -21.7734 -23.789 -25.435 -26.6902 -27.5367 -27.9626 -4.50495 -7.89053 -11.138 -14.2043 -17.0452 -19.6235 -21.9039 -23.854 -25.4478 -26.6627 -27.4821 -27.8943 -5.25097 -8.53789 -11.6913 -14.6704 -17.4315 -19.9362 -22.1511 -24.0467 -25.5959 -26.7765 -27.5725 -27.9733 -27.9626 -27.5367 -26.6902 -25.435 -23.789 -21.7734 -19.4175 -16.7521 -13.8175 -10.6493 -7.29078 -3.79067 -27.8943 -27.4821 -26.6627 -25.4478 -23.854 -21.9039 -19.6235 -17.0452 -14.2043 -11.138 -7.89053 -4.50495 -27.9733 -27.5725 -26.7765 -25.5959 -24.0467 -22.1511 -19.9362 -17.4315 -14.6704 -11.6913 -8.53789 -5.25097 -0.194637 3.44889 7.08802 10.6722 14.1638 17.5089 20.6617 23.5808 26.2306 28.579 30.5822 32.1701 -1.0268 2.49602 6.0138 9.47968 12.8522 16.0827 19.1264 21.9434 24.4988 26.7604 28.6946 30.2779 -1.87329 1.54747 4.96132 8.32321 11.5952 14.7283 17.6774 20.4055 22.8776 25.0677 26.941 28.5248 
</DataArray>
<DataArray Name="Stress_23" format="ascii" type="Float64">
2.02682 23.989 54.2141 93.9809 140.691 191.697 244.354 296.232 344.981 388.677 425.541 454.022 0.528817 26.0285 56.2133 95.1752 140.816 190.506 241.741 292.116 339.453 381.805 417.427 444.896 2.54383 25.3897 55.4878 94.4631 139.803 188.966 239.478 289.043 335.564 377.112 411.948 438.746 472.988 481.602 479.306 465.903 441.666 406.957 362.509 309.346 248.72 182.098 111.052 37.3193 463.098 471.21 468.693 455.403 431.532 397.496 353.991 302.011 242.793 177.74 108.39 36.4225 456.449 464.226 461.55 448.281 424.667 391.08 348.19 297.013 238.737 174.764 106.571 35.8062 -37.3193 -111.052 -182.098 -248.72 -309.346 -362.509 -406.957 -441.666 -465.903 -479.306 -481.602 -472.988 -36.4225 -108.39 -177.74 -242.793 -302.011 -353.991 -397.496 -431.532 -455.403 -468.693 -471.21 -463.098 -35.8062 -106.571 -174.764 -238.737 -297.013 -348.19 -391.08 -424.667 -448.281 -461.55 -464.226 -456.449 -454.022 -425.541 -388.677 -344.981 -296.232 -244.354 -191.697 -140.691 -93.9809 -54.2141 -23.989 -2.02682 -444.896 -417.427 -381.805 -339.453 -292.116 -241.741 -190.506 -140.816 -95.1752 -56.2133 -26.0285 -0.528817 -438.746 -411.948 -377.112 -335.564 -289.043 -239.478 -188.966 -139.803 -94.4631 -55.4878 -25.3897 -2.54383 1.98456 5.7386 9.31028 12.6185 15.6228 18.2945 20.6029 22.5252 24.0372 25.1329 25.8032 26.0406 1.93512 5.52862 8.97851 12.179 15.0883 17.6745 19.9099 21.7703 23.2391 24.3029 24.9526 25.185 1.86499 5.38386 8.73402 11.84 14.6667 17.1777 19.3479 21.1548 22.5836 23.6196 24.2499 24.4758 25.8504 25.2415 24.2258 22.8219 21.0613 18.9692 16.5791 13.9302 11.0645 8.02809 4.86687 1.63068 25.0041 24.4175 23.4362 22.081 20.378 18.3546 16.0426 13.4796 10.7073 7.76909 4.71009 1.57813 24.3018 23.7331 22.7802 21.4627 19.8087 17.8427 15.595 13.1039 10.4087 7.55305 4.57926 1.53413 -1.63068 -4.86687 -8.02809 -11.0645 -13.9302 -16.5791 -18.9692 -21.0613 -22.8219 -24.2258 -25.2415 -25.8504 -1.57813 -4.71009 -7.76909 -10.7073 -13.4796 -16.0426 -18.3546 -20.378 -22.081 -23.4362 -24.4175 -25.0041 -1.53413 -4.57926 -7.55305 -10.4087 -13.1039 -15.595 -17.8427 -19.8087 -21.4627 -22.7802 -23.7331 -24.3018 -26.0406 -25.8032 -25.1329 -24.0372 -22.5252 -20.6029 -18.2945 -15.6228 -12.6185 -9.31028 -5.7386 -1.98456 -25.185 -24.9526 -24.3029 -23.2391 -21.7703 -19.9099 -17.6745 -15.0883 -12.179 -8.97851 -5.52862 -1.93512 -24.4758 -24.2499 -23.6196 -22.5836 -21.1548 -19.3479 -17.1777 -14.6667 -11.84 -8.73402 -5.38386 -1.86499 
</DataArray>
<DataArray Name="Stress_33" format="ascii" type="Float64">
0 0 0 0 0 0 0 0 0 0 0 0 0 0 0 0 0 0 0 0 0 0 0 0 0 0 0 0 0 0 0 0 0 0 0 0 0 0 0 0 0 0 0 0 0 0 0 0 0 0 0 0 0 0 0 0 0 0 0 0 0 0 0 0 0 0 0 0 0 0 0 0 0 0 0 0 0 0 0 0 0 0 0 0 0 0 0 0 0 0 0 0 0 0 0 0 0 0 0 0 0 0 0 0 0 0 0 0 0 0 0 0 0 0 0 0 0 0 0 0 0 0 0 0 0 0 0 0 0 0 0 0 0 0 0 0 0 0 0 0 0 0 0 0 0 0 0 0 0 0 0 0 0 0 0 0 0 0 0 0 0 0 0 0 0 0 0 0 0 0 0 0 0 0 0 0 0 0 0 0 0 0 0 0 0 0 0 0 0 0 0 0 0 0 0 0 0 0 0 0 0 0 0 0 0 0 0 0 0 0 0 0 0 0 0 0 0 0 0 0 0 0 0 0 0 0 0 0 0 0 0 0 0 0 0 0 0 0 0 0 0 0 0 0 0 0 0 0 0 0 0 0 0 0 0 0 0 0 0 0 0 0 0 0 0 0 0 0 0 0 0 0 0 0 0 0 0 0 0 0 0 0 0 0 0 0 0 0 
</DataArray>
</CellData>
<Points>
<DataArray NumberOfComponents="3" format="ascii" type="Float64">
0 0.09 0 -0.06364 0.06364 0 -0.005886 0.089807 0 -0.011747 0.08923 0 -0.017558 0.088271 0 -0.023294 0.086933 0 -0.02893 0.085224 0 -0.034442 0.083149 0 -0.039806 0.080719 0 -0.045 0.077942 0 -0.050001 0.074832 0 -0.054789 0.071402 0 -0.059341 0.067666 0 -0.065997 0.065997 0 0 0.093333 0 -0.006104 0.093133 0 -0.012182 0.092535 0 -0.018208 0.09154 0 -0.024156 0.090153 0 -0.030001 0.08838 0 -0.035717 0.086229 0 -0.04128 0.083708 0 -0.046667 0.080829 0 -0.051853 0.077604 0 -0.056818 0.074046 0 -0.061539 0.070172 0 -0.068354 0.068354 0 0 0.096667 0 -0.006322 0.09646 0 -0.012618 0.09584 0 -0.018859 0.094809 0 -0.025019 0.093373 0 -0.031072 0.091537 0 -0.036993 0.089308 0 -0.042755 0.086698 0 -0.048333 0.083716 0 -0.053705 0.080375 0 -0.058847 0.076691 0 -0.063737 0.072678 0 -0.070711 0.070711 0 0 0.1 0 -0.00654 0.099786 0 -0.013053 0.099144 0 -0.019509 0.098079 0 -0.025882 0.096593 0 -0.032144 0.094693 0 -0.038268 0.092388 0 -0.044229 0.089687 0 -0.05 0.086603 0 -0.055557 0.083147 0 -0.060876 0.079335 0 -0.065935 0.075184 0 -0.09 0 0 -0.067666 0.059341 0 -0.071402 0.054789 0 -0.074832 0.050001 0 -0.077942 0.045 0 -0.080719 0.039806 0 -0.083149 0.034442 0 -0.085224 0.02893 0 -0.086933 0.023294 0 -0.088271 0.017558 0 -0.08923 0.011747 0 -0.089807 0.005886 0 -0.093333 0 0 -0.070172 0.061539 0 -0.074046 0.056818 0 -0.077604 0.051853 0 -0.080829 0.046667 0 -0.083708 0.04128 0 -0.086229 0.035717 0 -0.08838 0.030001 0 -0.090153 0.024156 0 -0.09154 0.018208 0 -0.092535 0.012182 0 -0.093133 0.006104 0 -0.096667 0 0 -0.072678 0.063737 0 -0.076691 0.058847 0 -0.080375 0.053705 0 -0.083716 0.048333 0 -0.086698 0.042755 0 -0.089308 0.036993 0 -0.091537 0.031072 0 -0.093373 0.025019 0 -0.094809 0.018859 0 -0.09584 0.012618 0 -0.09646 0.006322 0 -0.1 0 0 -0.075184 0.065935 0 -0.079335 0.060876 0 -0.083147 0.055557 0 -0.086603 0.05 0 -0.089687 0.044229 0 -0.092388 0.038268 0 -0.094693 0.032144 0 -0.096593 0.025882 0 -0.098079 0.019509 0 -0.099144 0.013053 0 -0.099786 0.00654 0 -0.06364 -0.06364 0 -0.089807 -0.005886 0 -0.08923 -0.011747 0 -0.088271 -0.017558 0 -0.086933 -0.023294 0 -0.085224 -0.02893 0 -0.083149 -0.034442 0 -0.080719 -0.039806 0 -0.077942 -0.045 0 -0.074832 -0.050001 0 -0.071402 -0.054789 0 -0.067666 -0.059341 0 -0.065997 -0.065997 0 -0.093133 -0.006104 0 -0.092535 -0.012182 0 -0.09154 -0.018208 0 -0.090153 -0.024156 0 -0.08838 -0.030001 0 -0.086229 -0.035717 0 -0.083708 -0.04128 0 -0.080829 -0.046667 0 -0.077604 -0.051853 0 -0.074046 -0.056818 0 -0.070172 -0.061539 0 -0.068354 -0.068354 0 -0.09646 -0.006322 0 -0.09584 -0.012618 0 -0.094809 -0.018859 0 -0.093373 -0.025019 0 -0.091537 -0.031072 0 -0.089308 -0.036993 0 -0.086698 -0.042755 0 -0.083716 -0.048333 0 -0.080375 -0.053705 0 -0.076691 -0.058847 0 -0.072678 -0.063737 0 -0.070711 -0.070711 0 -0.099786 -0.00654 0 -0.099144 -0.013053 0 -0.098079 -0.019509 0 -0.096593 -0.025882 0 -0.094693 -0.032144 0 -0.092388 -0.038268 0 -0.089687 -0.044229 0 -0.086603 -0.05 0 -0.083147 -0.055557 0 -0.079335 -0.060876 0 -0.075184 -0.065935 0 0 -0.09 0 -0.059341 -0.067666 0 -0.054789 -0.071402 0 -0.050001 -0.074832 0 -0.045 -0.077942 0 -0.039806 -0.080719 0 -0.034442 -0.083149 0 -0.02893 -0.085224 0 -0.023294 -0.086933 0 -0.017558 -0.088271 0 -0.011747 -0.08923 0 -0.005886 -0.089807 0 0 -0.093333 0 -0.061539 -0.070172 0 -0.056818 -0.074046 0 -0.051853 -0.077604 0 -0.046667 -0.080829 0 -0.04128 -0.083708 0 -0.035717 -0.086229 0 -0.030001 -0.08838 0 -0.024156 -0.090153 0 -0.018208 -0.09154 0 -0.012182 -0.092535 0 -0.006104 -0.093133 0 0 -0.096667 0 -0.063737 -0.072678 0 -0.058847 -0.076691 0 -0.053705 -0.080375 0 -0.048333 -0.083716 0 -0.042755 -0.086698 0 -0.036993 -0.089308 0 -0.031072 -0.091537 0 -0.025019 -0.093373 0 -0.018859 -0.094809 0 -0.012618 -0.09584 0 -0.006322 -0.09646 0 0 -0.1 0 -0.065935 -0.075184 0 -0.060876 -0.079335 0 -0.055557 -0.083147 0 -0.05 -0.086603 0 -0.044229 -0.089687 0 -0.038268 -0.092388 0 -0.032144 -0.094693 0 -0.025882 -0.096593 0 -0.019509 -0.098079 0 -0.013053 -0.099144 0 -0.00654 -0.099786 0 0.06364 -0.06364 0 0.005886 -0.089807 0 0.011747 -0.08923 0 0.017558 -0.088271 0 0.023294 -0.086933 0 0.02893 -0.085224 0 0.034442 -0.083149 0 0.039806 -0.080719 0 0.045 -0.077942 0 0.050001 -0.074832 0 0.054789 -0.071402 0 0.059341 -0.067666 0 0.065997 -0.065997 0 0.006104 -0.093133 0 0.012182 -0.092535 0 0.018208 -0.09154 0 0.024156 -0.090153 0 0.030001 -0.08838 0 0.035717 -0.086229 0 0.04128 -0.083708 0 0.046667 -0.080829 0 0.051853 -0.077604 0 0.056818 -0.074046 0 0.061539 -0.070172 0 0.068354 -0.068354 0 0.006322 -0.09646 0 0.012618 -0.09584 0 0.018859 -0.094809 0 0.025019 -0.093373 0 0.031072 -0.091537 0 0.036993 -0.089308 0 0.042755 -0.086698 0 0.048333 -0.083716 0 0.053705 -0.080375 0 0.058847 -0.076691 0 0.063737 -0.072678 0 0.070711 -0.070711 0 0.00654 -0.099786 0 0.013053 -0.099144 0 0.019509 -0.098079 0 0.025882 -0.096593 0 0.032144 -0.094693 0 0.038268 -0.092388 0 0.044229 -0.089687 0 0.05 -0.086603 0 0.055557 -0.083147 0 0.060876 -0.079335 0 0.065935 -0.075184 0 0.09 0 0 0.067666 -0.059341 0 0.071402 -0.054789 0 0.074832 -0.050001 0 0.077942 -0.045 0 0.080719 -0.039806 0 0.083149 -0.034442 0 0.085224 -0.02893 0 0.086933 -0.023294 0 0.088271 -0.017558 0 0.08923 -0.011747 0 0.089807 -0.005886 0 0.093333 0 0 0.070172 -0.061539 0 0.074046 -0.056818 0 0.077604 -0.051853 0 0.080829 -0.046667 0 0.083708 -0.04128 0 0.086229 -0.035717 0 0.08838 -0.030001 0 0.090153 -0.024156 0 0.09154 -0.018208 0 0.092535 -0.012182 0 0.093133 -0.006104 0 0.096667 0 0 0.072678 -0.063737 0 0.076691 -0.058847 0 0.080375 -0.053705 0 0.083716 -0.048333 0 0.086698 -0.042755 0 0.089308 -0.036993 0 0.091537 -0.031072 0 0.093373 -0.025019 0 0.094809 -0.018859 0 0.09584 -0.012618 0 0.09646 -0.006322 0 0.1 0 0 0.075184 -0.065935 0 0.079335 -0.060876 0 0.083147 -0.055557 0 0.086603 -0.05 0 0.089687 -0.044229 0 0.092388 -0.038268 0 0.094693 -0.032144 0 0.096593 -0.025882 0 0.098079 -0.019509 0 0.099144 -0.013053 0 0.099786 -0.00654 0 0.06364 0.06364 0 0.089807 0.005886 0 0.08923 0.011747 0 0.088271 0.017558 0 0.086933 0.023294 0 0.085224 0.02893 0 0.083149 0.034442 0 0.080719 0.039806 0 0.077942 0.045 0 0.074832 0.050001 0 0.071402 0.054789 0 0.067666 0.059341 0 0.065997 0.065997 0 0.093133 0.006104 0 0.092535 0.012182 0 0.09154 0.018208 0 0.090153 0.024156 0 0.08838 0.030001 0 0.086229 0.035717 0 0.083708 0.04128 0 0.080829 0.046667 0 0.077604 0.051853 0 0.074046 0.056818 0 0.070172 0.061539 0 0.068354 0.068354 0 0.09646 0.006322 0 0.09584 0.012618 0 0.094809 0.018859 0 0.093373 0.025019 0 0.091537 0.031072 0 0.089308 0.036993 0 0.086698 0.042755 0 0.083716 0.048333 0 0.080375 0.053705 0 0.076691 0.058847 0 0.072678 0.063737 0 0.070711 0.070711 0 0.099786 0.00654 0 0.099144 0.013053 0 0.098079 0.019509 0 0.096593 0.025882 0 0.094693 0.032144 0 0.092388 0.038268 0 0.089687 0.044229 0 0.086603 0.05 0 0.083147 0.055557 0 0.079335 0.060876 0 0.075184 0.065935 0 0.059341 0.067666 0 0.054789 0.071402 0 0.050001 0.074832 0 0.045 0.077942 0 0.039806 0.080719 0 0.034442 0.083149 0 0.02893 0.085224 0 0.023294 0.086933 0 0.017558 0.088271 0 0.011747 0.08923 0 0.005886 0.089807 0 0.061539 0.070172 0 0.056818 0.074046 0 0.051853 0.077604 0 0.046667 0.080829 0 0.04128 0.083708 0 0.035717 0.086229 0 0.030001 0.08838 0 0.024156 0.090153 0 0.018208 0.09154 0 0.012182 0.092535 0 0.006104 0.093133 0 0.063737 0.072678 0 0.058847 0.076691 0 0.053705 0.080375 0 0.048333 0.083716 0 0.042755 0.086698 0 0.036993 0.089308 0 0.031072 0.091537 0 0.025019 0.093373 0 0.018859 0.094809 0 0.012618 0.09584 0 0.006322 0.09646 0 0.065935 0.075184 0 0.060876 0.079335 0 0.055557 0.083147 0 0.05 0.086603 0 0.044229 0.089687 0 0.038268 0.092388 0 0.032144 0.094693 0 0.025882 0.096593 0 0.019509 0.098079 0 0.013053 0.099144 0 0.00654 0.099786 0 
</DataArray>
</Points>
<Cells>
<DataArray Name="connectivity" format="ascii" type="Int64">