<?xml version="1.0"?>
<VTKFile byte_order="LittleEndian" type="UnstructuredGrid" version="0.1">
<UnstructuredGrid>
<Piece NumberOfCells="288" NumberOfPoints="384">
<PointData>
<DataArray Name="Warping_X" format="ascii" type="Float64">
-0 -0 0 0 0 0 0 0 0 0 0 0 0 0 -0 0 0 0 0 0 0 0 0 0 0 0 0 0 0 0 0 0 0 0 0 0 0 0 0 0 0 0 0 0 0 0 0 0 0 0 0 0 0 0 0 0 0 0 0 0 0 0 0 0 0 0 0 0 0 0 0 0 0 0 0 0 -0 0 0 0 0 0 0 0 0 0 0 0 0 0 0 0 0 0 0 0 0 0 0 0 -0 0 0 0 0 0 0 0 0 0 0 0 0 0 0 0 0 0 0 0 0 0 0 0 0 0 0 0 0 0 0 0 0 0 0 0 0 0 0 0 0 0 0 0 0 0 0 0 0 0 0 0 0 0 0 0 0 0 0 0 0 0 0 0 0 0 0 0 0 0 0 0 0 0 0 0 0 0 0 0 0 0 0 0 0 0 0 0 0 0 0 0 0 0 0 0 -0 -0 0 0 0 0 0 0 0 0 0 0 0 0 0 0 0 0 0 0 0 0 0 0 0 0 0 0 0 0 0 0 0 0 0 0 0 0 0 0 0 0 0 0 0 0 0 0 0 0 0 0 0 0 0 0 0 0 0 0 0 0 0 0 0 0 0 0 0 0 0 0 0 0 0 0 0 0 0 0 0 0 0 0 0 0 0 0 0 0 0 0 0 0 0 0 -0 0 0 0 0 0 0 0 0 0 0 0 0 0 0 0 0 0 0 0 0 0 0 0 0 0 0 0 0 0 0 0 0 0 0 0 0 0 0 0 0 0 0 0 0 0 0 0 0 0 0 0 0 0 0 0 0 0 0 0 0 0 0 0 0 0 0 0 0 0 0 0 0 0 0 0 0 0 0 0 0 0 0 0 0 0 0 0 0 0 0 0 
</DataArray>
<DataArray Name="Warping_Y" format="ascii" type="Float64">
0 -0 0 0 0 0 0 0 0 0 0 0 0 0 -0 0 0 0 0 0 0 0 0 0 0 0 0 0 0 0 0 0 0 0 0 0 0 0 0 0 0 0 0 0 0 0 0 0 0 0 0 0 -0 0 0 0 0 0 0 0 0 0 0 0 -0 0 0 0 0 0 0 0 0 0 0 0 0 0 0 0 0 0 0 0 0 0 0 0 0 0 0 0 0 0 0 0 0 0 0 0 -0 0 0 0 0 0 0 0 0 0 0 0 0 0 0 0 0 0 0 0 0 0 0 0 0 0 0 0 0 0 0 0 0 0 0 0 0 0 0 0 0 0 0 0 0 0 0 0 0 0 0 0 0 0 0 0 0 0 0 0 0 0 0 0 0 0 0 0 0 0 0 0 0 0 0 0 0 0 0 0 0 0 0 0 0 0 0 0 0 0 0 0 0 0 0 0 -0 0 0 0 0 0 0 0 0 0 0 0 0 0 0 0 0 0 0 0 0 0 0 0 0 0 0 0 0 0 0 0 0 0 0 0 0 0 0 0 0 0 0 0 0 0 0 0 -0 0 0 0 0 0 0 0 0 0 0 0 0 0 0 0 0 0 0 0 0 0 0 0 0 0 0 0 0 0 0 0 0 0 0 0 0 0 0 0 0 0 0 0 0 0 0 0 -0 0 0 0 0 0 0 0 0 0 0 0 0 0 0 0 0 0 0 0 0 0 0 0 0 0 0 0 0 0 0 0 0 0 0 0 0 0 0 0 0 0 0 0 0 0 0 0 0 0 0 0 0 0 0 0 0 0 0 0 0 0 0 0 0 0 0 0 0 0 0 0 0 0 0 0 0 0 0 0 0 0 0 0 0 0 0 0 0 0 0 0 
</DataArray>
<DataArray Name="Warping_Z" format="ascii" type="Float64">
0 0 0 0 0 0 0 0 0 0 0 0 0 0 0 0 0 0 0 0 0 0 0 0 0 0 0 0 0 0 0 0 0 0 0 0 0 0 0 0 0 0 0 0 0 0 0 0 0 0 0 0 0 0 0 0 0 0 0 0 0 0 0 0 0 0 0 0 0 0 0 0 0 0 0 0 0 0 0 0 0 0 0 0 0 0 0 0 0 0 0 0 0 0 0 0 0 0 0 0 0 0 0 0 0 0 0 0 0 0 0 0 0 0 0 0 0 0 0 0 0 0 0 0 0 0 0 0 0 0 0 0 0 0 0 0 0 0 0 0 0 0 0 0 0 0 0 0 0 0 0 0 0 0 0 0 0 0 0 0 0 0 0 0 0 0 0 0 0 0 0 0 0 0 0 0 0 0 0 0 0 0 0 0 0 0 0 0 0 0 0 0 0 0 0 0 0 0 0 0 0 0 0 0 0 0 0 0 0 0 0 0 0 0 0 0 0 0 0 0 0 0 0 0 0 0 0 0 0 0 0 0 0 0 0 0 0 0 0 0 0 0 0 0 0 0 0 0 0 0 0 0 0 0 0 0 0 0 0 0 0 0 0 0 0 0 0 0 0 0 0 0 0 0 0 0 0 0 0 0 0 0 0 0 0 0 0 0 0 0 0 0 0 0 0 0 0 0 0 0 0 0 0 0 0 0 0 0 0 0 0 0 0 0 0 0 0 0 0 0 0 0 0 0 0 0 0 0 0 0 0 0 0 0 0 0 0 0 0 0 0 0 0 0 0 0 0 0 0 0 0 0 0 0 0 0 0 0 0 0 0 0 0 0 0 0 0 0 0 0 0 0 0 0 0 0 0 0 0 0 0 0 0 0 
</DataArray>
</PointData>
<CellData>
<DataArray Name="MaterialId" format="ascii" type="Float64">
1 1 1 1 1 1 1 1 1 1 1 1 1 1 1 1 1 1 1 1 1 1 1 1 1 1 1 1 1 1 1 1 1 1 1 1 1 1 1 1 1 1 1 1 1 1 1 1 1 1 1 1 1 1 1 1 1 1 1 1 1 1 1 1 1 1 1 1 1 1 1 1 1 1 1 1 1 1 1 1 1 1 1 1 1 1 1 1 1 1 1 1 1 1 1 1 1 1 1 1 1 1 1 1 1 1 1 1 1 1 1 1 1 1 1 1 1 1 1 1 1 1 1 1 1 1 1 1 1 1 1 1 1 1 1 1 1 1 1 1 1 1 1 1 2 2 2 2 2 2 2 2 2 2 2 2 2 2 2 2 2 2 2 2 2 2 2 2 2 2 2 2 2 2 2 2 2 2 2 2 2 2 2 2 2 2 2 2 2 2 2 2 2 2 2 2 2 2 2 2 2 2 2 2 2 2 2 2 2 2 2 2 2 2 2 2 2 2 2 2 2 2 2 2 2 2 2 2 2 2 2 2 2 2 2 2 2 2 2 2 2 2 2 2 2 2 2 2 2 2 2 2 2 2 2 2 2 2 2 2 2 2 2 2 2 2 2 2 2 2 2 2 2 2 2 2 2 2 2 2 2 2 2 2 2 2 2 2 
</DataArray>
<DataArray Name="FiberAngle" format="ascii" type="Float64">
0 0 0 0 0 0 0 0 0 0 0 0 0 0 0 0 0 0 0 0 0 0 0 0 0 0 0 0 0 0 0 0 0 0 0 0 0 0 0 0 0 0 0 0 0 0 0 0 0 0 0 0 0 0 0 0 0 0 0 0 0 0 0 0 0 0 0 0 0 0 0 0 0 0 0 0 0 0 0 0 0 0 0 0 0 0 0 0 0 0 0 0 0 0 0 0 0 0 0 0 0 0 0 0 0 0 0 0 0 0 0 0 0 0 0 0 0 0 0 0 0 0 0 0 0 0 0 0 0 0 0 0 0 0 0 0 0 0 0 0 0 0 0 0 0 0 0 0 0 0 0 0 0 0 0 0 0 0 0 0 0 0 0 0 0 0 0 0 0 0 0 0 0 0 0 0 0 0 0 0 0 0 0 0 0 0 0 0 0 0 0 0 0 0 0 0 0 0 0 0 0 0 0 0 0 0 0 0 0 0 0 0 0 0 0 0 0 0 0 0 0 0 0 0 0 0 0 0 0 0 0 0 0 0 0 0 0 0 0 0 0 0 0 0 0 0 0 0 0 0 0 0 0 0 0 0 0 0 0 0 0 0 0 0 0 0 0 0 0 0 0 0 0 0 0 0 0 0 0 0 0 0 0 0 0 0 0 0 
</DataArray>
<DataArray Name="Strain_11" format="ascii" type="Float64">
0 0 0 0 0 0 0 0 0 0 0 0 0 0 0 0 0 0 0 0 0 0 0 0 0 0 0 0 0 0 0 0 0 0 0 0 0 0 0 0 0 0 0 0 0 0 0 0 0 0 0 0 0 0 0 0 0 0 0 0 0 0 0 0 0 0 0 0 0 0 0 0 0 0 0 0 0 0 0 0 0 0 0 0 0 0 0 0 0 0 0 0 0 0 0 0 0 0 0 0 0 0 0 0 0 0 0 0 0 0 0 0 0 0 0 0 0 0 0 0 0 0 0 0 0 0 0 0 0 0 0 0 0 0 0 0 0 0 0 0 0 0 0 0 0 0 0 0 0 0 0 0 0 0 0 0 0 0 0 0 0 0 0 0 0 0 0 0 0 0 0 0 0 0 0 0 0 0 0 0 0 0 0 0 0 0 0 0 0 0 0 0 0 0 0 0 0 0 0 0 0 0 0 0 0 0 0 0 0 0 0 0 0 0 0 0 0 0 0 0 0 0 0 0 0 0 0 0 0 0 0 0 0 0 0 0 0 0 0 0 0 0 0 0 0 0 0 0 0 0 0 0 0 0 0 0 0 0 0 0 0 0 0 0 0 0 0 0 0 0 0 0 0 0 0 0 0 0 0 0 0 0 0 0 0 0 0 0 
</DataArray>
<DataArray Name="Strain_22" format="ascii" type="Float64">
0 0 0 0 0 0 0 0 0 0 0 0 0 0 0 0 0 0 0 0 0 0 0 0 0 0 0 0 0 0 0 0 0 0 0 0 0 0 0 0 0 0 0 0 0 0 0 0 0 0 0 0 0 0 0 0 0 0 0 0 0 0 0 0 0 0 0 0 0 0 0 0 0 0 0 0 0 0 0 0 0 0 0 0 0 0 0 0 0 0 0 0 0 0 0 0 0 0 0 0 0 0 0 0 0 0 0 0 0 0 0 0 0 0 0 0 0 0 0 0 0 0 0 0 0 0 0 0 0 0 0 0 0 0 0 0 0 0 0 0 0 0 0 0 0 0 0 0 0 0 0 0 0 0 0 0 0 0 0 0 0 0 0 0 0 0 0 0 0 0 0 0 0 0 0 0 0 0 0 0 0 0 0 0 0 0 0 0 0 0 0 0 0 0 0 0 0 0 0 0 0 0 0 0 0 0 0 0 0 0 0 0 0 0 0 0 0 0 0 0 0 0 0 0 0 0 0 0 0 0 0 0 0 0 0 0 0 0 0 0 0 0 0 0 0 0 0 0 0 0 0 0 0 0 0 0 0 0 0 0 0 0 0 0 0 0 0 0 0 0 0 0 0 0 0 0 0 0 0 0 0 0 0 0 0 0 0 0 
</DataArray>
<DataArray Name="Strain_12" format="ascii" type="Float64">
0 0 0 0 0 0 0 0 0 0 0 0 0 0 0 0 0 0 0 0 0 0 0 0 0 0 0 0 0 0 0 0 0 0 0 0 0 0 0 0 0 0 0 0 0 0 0 0 0 0 0 0 0 0 0 0 0 0 0 0 0 0 0 0 0 0 0 0 0 0 0 0 0 0 0 0 0 0 0 0 0 0 0 0 0 0 0 0 0 0 0 0 0 0 0 0 0 0 0 0 0 0 0 0 0 0 0 0 0 0 0 0 0 0 0 0 0 0 0 0 0 0 0 0 0 0 0 0 0 0 0 0 0 0 0 0 0 0 0 0 0 0 0 0 0 0 0 0 0 0 0 0 0 0 0 0 0 0 0 0 0 0 0 0 0 0 0 0 0 0 0 0 0 0 0 0 0 0 0 0 0 0 0 0 0 0 0 0 0 0 0 0 0 0 0 0 0 0 0 0 0 0 0 0 0 0 0 0 0 0 0 0 0 0 0 0 0 0 0 0 0 0 0 0 0 0 0 0 0 0 0 0 0 0 0 0 0 0 0 0 0 0 0 0 0 0 0 0 0 0 0 0 0 0 0 0 0 0 0 0 0 0 0 0 0 0 0 0 0 0 0 0 0 0 0 0 0 0 0 0 0 0 0 0 0 0 0 0 
</DataArray>
<DataArray Name="Strain_13" format="ascii" type="Float64">
1932.78 1975.36 1961.83 1936.68 1903.01 1861.18 1811.38 1753.82 1688.75 1616.46 1537.24 1451.44 1917.84 1909.36 1893.19 1868.73 1836.24 1795.87 1747.81 1692.28 1629.5 1559.73 1483.29 1400.51 1904.5 1848.02 1829.21 1805.4 1773.98 1734.99 1688.56 1634.9 1574.26 1506.86 1433 1353.03 1359.42 1261.58 1158.32 1050.13 937.453 820.719 700.506 577.265 451.576 323.927 194.913 65.0648 1311.72 1217.31 1117.69 1013.28 904.543 791.936 675.905 557.007 435.73 312.573 188.073 62.7804 1267.26 1176.05 1079.79 978.931 873.887 765.075 652.999 538.115 420.957 302.001 181.697 60.6493 -65.0648 -194.913 -323.927 -451.576 -577.265 -700.506 -820.719 -937.453 -1050.13 -1158.32 -1261.58 -1359.42 -62.7804 -188.073 -312.573 -435.73 -557.007 -675.905 -791.936 -904.543 -1013.28 -1117.69 -1217.31 -1311.72 -60.6493 -181.697 -302.001 -420.957 -538.115 -652.999 -765.075 -873.887 -978.931 -1079.79 -1176.05 -1267.26 -1451.44 -1537.24 -1616.46 -1688.75 -1753.82 -1811.38 -1861.18 -1903.01 -1936.68 -1961.83 -1975.36 -1932.78 -1400.51 -1483.29 -1559.73 -1629.5 -1692.28 -1747.81 -1795.87 -1836.24 -1868.73 -1893.19 -1909.36 -1917.84 -1353.03 -1433 -1506.86 -1574.26 -1634.9 -1688.56 -1734.99 -1773.98 -1805.4 -1829.21 -1848.02 -1904.5 1932.92 1975.45 1962.1 1936.74 1903.15 1861.46 1811.66 1753.95 1688.66 1616.74 1537.57 1451.63 1917.96 1909.56 1893.39 1868.8 1836.36 1796.12 1748.1 1692.42 1629.53 1559.96 1483.61 1400.7 1904.58 1848.33 1829.48 1805.34 1774.08 1735.24 1688.92 1635.07 1574.21 1507.12 1433.39 1353.19 1359.57 1261.71 1158.29 1050.11 937.691 820.876 700.586 577.263 451.597 323.886 194.842 65.0959 1311.81 1217.41 1117.79 1013.34 904.639 792.073 676.038 557.084 435.707 312.498 188.056 62.8032 1267.23 1176.13 1080.05 979.008 873.862 765.201 653.2 538.293 420.88 301.839 181.74 60.7274 -65.0959 -194.842 -323.886 -451.597 -577.263 -700.586 -820.876 -937.691 -1050.11 -1158.29 -1261.71 -1359.57 -62.8032 -188.056 -312.498 -435.707 -557.084 -676.038 -792.073 -904.639 -1013.34 -1117.79 -1217.41 -1311.81 -60.7274 -181.74 -301.839 -420.88 -538.293 -653.2 -765.201 -873.862 -979.008 -1080.05 -1176.13 -1267.23 -1451.63 -1537.57 -1616.74 -1688.66 -1753.95 -1811.66 -1861.46 -1903.15 -1936.74 -1962.1 -1975.45 -1932.92 -1400.7 -1483.61 -1559.96 -1629.53 -1692.42 -1748.1 -1796.12 -1836.36 -1868.8 -1893.39 -1909.56 -1917.96 -1353.19 -1433.39 -1507.12 -1574.21 -1635.07 -1688.92 -1735.24 -1774.08 -1805.34 -1829.48 -1848.33 -1904.58 
</DataArray>
<DataArray Name="Strain_23" format="ascii" type="Float64">
-2334.35 -2243.11 -2115.85 -1988.41 -1862.71 -1739.47 -1619.26 -1502.53 -1389.85 -1281.65 -1178.4 -1080.56 -2304.42 -2246.6 -2127.2 -2004.21 -1882.98 -1764.07 -1648.04 -1535.44 -1426.7 -1322.29 -1222.67 -1128.26 -2339.81 -2256.44 -2137.67 -2019.04 -1901.86 -1786.98 -1674.9 -1566.09 -1461.05 -1360.19 -1263.93 -1172.72 -988.538 -902.74 -823.515 -751.229 -686.162 -628.599 -578.802 -536.964 -503.285 -477.897 -460.919 -452.404 -1039.47 -956.685 -880.245 -810.483 -747.698 -692.169 -644.109 -603.74 -571.239 -546.755 -530.374 -522.154 -1086.95 -1006.98 -933.122 -865.716 -805.079 -751.423 -704.99 -665.995 -634.593 -610.945 -595.115 -587.174 -452.404 -460.919 -477.897 -503.285 -536.964 -578.802 -628.599 -686.162 -751.229 -823.515 -902.74 -988.538 -522.154 -530.374 -546.755 -571.239 -603.74 -644.109 -692.169 -747.698 -810.483 -880.245 -956.685 -1039.47 -587.174 -595.115 -610.945 -634.593 -665.995 -704.99 -751.423 -805.079 -865.716 -933.122 -1006.98 -1086.95 -1080.56 -1178.4 -1281.65 -1389.85 -1502.53 -1619.26 -1739.47 -1862.71 -1988.41 -2115.85 -2243.11 -2334.35 -1128.26 -1222.67 -1322.29 -1426.7 -1535.44 -1648.04 -1764.07 -1882.98 -2004.21 -2127.2 -2246.6 -2304.42 -1172.72 -1263.93 -1360.19 -1461.05 -1566.09 -1674.9 -1786.98 -1901.86 -2019.04 -2137.67 -2256.44 -2339.81 -2334.32 -2243.18 -2115.89 -1988.39 -1862.71 -1739.39 -1619.1 -1502.29 -1389.87 -1281.69 -1178.26 -1080.41 -2304.39 -2246.62 -2127.28 -2004.23 -1882.9 -1763.94 -1647.91 -1535.34 -1426.64 -1322.19 -1222.57 -1128.17 -2339.73 -2256.39 -2137.83 -2019.11 -1901.68 -1786.78 -1674.78 -1566.12 -1460.97 -1359.93 -1263.85 -1172.74 -988.348 -902.406 -823.244 -751.316 -686.03 -628.319 -578.524 -536.829 -503.221 -477.635 -460.835 -452.266 -1039.28 -956.367 -880.021 -810.454 -747.562 -691.881 -643.856 -603.621 -571.17 -546.553 -530.175 -522.031 -1086.79 -1006.59 -932.858 -865.765 -804.911 -751.058 -704.737 -665.895 -634.652 -610.682 -594.806 -587.093 -452.266 -460.835 -477.635 -503.221 -536.829 -578.524 -628.319 -686.03 -751.316 -823.244 -902.406 -988.348 -522.031 -530.175 -546.553 -571.17 -603.621 -643.856 -691.881 -747.562 -810.454 -880.021 -956.367 -1039.28 -587.093 -594.806 -610.682 -634.652 -665.895 -704.737 -751.058 -804.911 -865.765 -932.858 -1006.59 -1086.79 -1080.41 -1178.26 -1281.69 -1389.87 -1502.29 -1619.1 -1739.39 -1862.71 -1988.39 -2115.89 -2243.18 -2334.32 -1128.17 -1222.57 -1322.19 -1426.64 -1535.34 -1647.91 -1763.94 -1882.9 -2004.23 -2127.28 -2246.62 -2304.39 -1172.74 -1263.85 -1359.93 -1460.97 -1566.12 -1674.78 -1786.78 -1901.68 -2019.11 -2137.83 -2256.39 -2339.73 
</DataArray>
<DataArray Name="Strain_33" format="ascii" type="Float64">
0 0 0 0 0 0 0 0 0 0 0 0 0 0 0 0 0 0 0 0 0 0 0 0 0 0 0 0 0 0 0 0 0 0 0 0 0 0 0 0 0 0 0 0 0 0 0 0 0 0 0 0 0 0 0 0 0 0 0 0 0 0 0 0 0 0 0 0 0 0 0 0 0 0 0 0 0 0 0 0 0 0 0 0 0 0 0 0 0 0 0 0 0 0 0 0 0 0 0 0 0 0 0 0 0 0 0 0 0 0 0 0 0 0 0 0 0 0 0 0 0 0 0 0 0 0 0 0 0 0 0 0 0 0 0 0 0 0 0 0 0 0 0 0 0 0 0 0 0 0 0 0 0 0 0 0 0 0 0 0 0 0 0 0 0 0 0 0 0 0 0 0 0 0 0 0 0 0 0 0 0 0 0 0 0 0 0 0 0 0 0 0 0 0 0 0 0 0 0 0 0 0 0 0 0 0 0 0 0 0 0 0 0 0 0 0 0 0 0 0 0 0 0 0 0 0 0 0 0 0 0 0 0 0 0 0 0 0 0 0 0 0 0 0 0 0 0 0 0 0 0 0 0 0 0 0 0 0 0 0 0 0 0 0 0 0 0 0 0 0 0 0 0 0 0 0 0 0 0 0 0 0 0 0 0 0 0 0 
</DataArray>
<DataArray Name="Stress_11" format="ascii" type="Float64">
0 0 0 0 0 0 0 0 0 0 0 0 0 0 0 0 0 0 0 0 0 0 0 0 0 0 0 0 0 0 0 0 0 0 0 0 0 0 0 0 0 0 0 0 0 0 0 0 0 0 0 0 0 0 0 0 0 0 0 0 0 0 0 0 0 0 0 0 0 0 0 0 0 0 0 0 0 0 0 0 0 0 0 0 0 0 0 0 0 0 0 0 0 0 0 0 0 0 0 0 0 0 0 0 0 0 0 0 0 0 0 0 0 0 0 0 0 0 0 0 0 0 0 0 0 0 0 0 0 0 0 0 0 0 0 0 0 0 0 0 0 0 0 0 0 0 0 0 0 0 0 0 0 0 0 0 0 0 0 0 0 0 0 0 0 0 0 0 0 0 0 0 0 0 0 0 0 0 0 0 0 0 0 0 0 0 0 0 0 0 0 0 0 0 0 0 0 0 0 0 0 0 0 0 0 0 0 0 0 0 0 0 0 0 0 0 0 0 0 0 0 0 0 0 0 0 0 0 0 0 0 0 0 0 0 0 0 0 0 0 0 0 0 0 0 0 0 0 0 0 0 0 0 0 0 0 0 0 0 0 0 0 0 0 0 0 0 0 0 0 0 0 0 0 0 0 0 0 0 0 0 0 0 0 0 0 0 0 
</DataArray>
<DataArray Name="Stress_22" format="ascii" type="Float64">
0 0 0 0 0 0 0 0 0 0 0 0 0 0 0 0 0 0 0 0 0 0 0 0 0 0 0 0 0 0 0 0 0 0 0 0 0 0 0 0 0 0 0 0 0 0 0 0 0 0 0 0 0 0 0 0 0 0 0 0 0 0 0 0 0 0 0 0 0 0 0 0 0 0 0 0 0 0 0 0 0 0 0 0 0 0 0 0 0 0 0 0 0 0 0 0 0 0 0 0 0 0 0 0 0 0 0 0 0 0 0 0 0 0 0 0 0 0 0 0 0 0 0 0 0 0 0 0 0 0 0 0 0 0 0 0 0 0 0 0 0 0 0 0 0 0 0 0 0 0 0 0 0 0 0 0 0 0 0 0 0 0 0 0 0 0 0 0 0 0 0 0 0 0 0 0 0 0 0 0 0 0 0 0 0 0 0 0 0 0 0 0 0 0 0 0 0 0 0 0 0 0 0 0 0 0 0 0 0 0 0 0 0 0 0 0 0 0 0 0 0 0 0 0 0 0 0 0 0 0 0 0 0 0 0 0 0 0 0 0 0 0 0 0 0 0 0 0 0 0 0 0 0 0 0 0 0 0 0 0 0 0 0 0 0 0 0 0 0 0 0 0 0 0 0 0 0 0 0 0 0 0 0 0 0 0 0 0 
</DataArray>
<DataArray Name="Stress_12" format="ascii" type="Float64">
0 0 0 0 0 0 0 0 0 0 0 0 0 0 0 0 0 0 0 0 0 0 0 0 0 0 0 0 0 0 0 0 0 0 0 0 0 0 0 0 0 0 0 0 0 0 0 0 0 0 0 0 0 0 0 0 0 0 0 0 0 0 0 0 0 0 0 0 0 0 0 0 0 0 0 0 0 0 0 0 0 0 0 0 0 0 0 0 0 0 0 0 0 0 0 0 0 0 0 0 0 0 0 0 0 0 0 0 0 0 0 0 0 0 0 0 0 0 0 0 0 0 0 0 0 0 0 0 0 0 0 0 0 0 0 0 0 0 0 0 0 0 0 0 0 0 0 0 0 0 0 0 0 0 0 0 0 0 0 0 0 0 0 0 0 0 0 0 0 0 0 0 0 0 0 0 0 0 0 0 0 0 0 0 0 0 0 0 0 0 0 0 0 0 0 0 0 0 0 0 0 0 0 0 0 0 0 0 0 0 0 0 0 0 0 0 0 0 0 0 0 0 0 0 0 0 0 0 0 0 0 0 0 0 0 0 0 0 0 0 0 0 0 0 0 0 0 0 0 0 0 0 0 0 0 0 0 0 0 0 0 0 0 0 0 0 0 0 0 0 0 0 0 0 0 0 0 0 0 0 0 0 0 0 0 0 0 0 
</DataArray>
<DataArray Name="Stress_13" format="ascii" type="Float64">
80533 82307.4 81743.7 80695.7 79292.9 77549.7 75474.8 73076.3 70365.2 67353.2 64052.1 60477.2 79910.5 79557.2 78883.5 77864.5 76510.6 74828.5 72826 70512.3 67896.2 64989.5 61804.4 58354.9 79354.9 77001.5 76217.8 75225.7 73916.6 72291.8 70357.1 68121.4 65594.8 62786.2 59708.7 56376.6 56642.9 52566.4 48263.9 43755.9 39060.8 34196.9 29188 24052.9 18815.8 13497.1 8121.43 2711.06 54655.5 50721.6 46570.8 42220.4 37689.6 32997.6 28162.9 23208.8 18155.5 13024 7836.43 2615.87 52802.8 49002.5 44991.4 40789.1 36412.3 31878.4 27208.5 22421.6 17540 12583.5 7570.75 2527.08 -2711.06 -8121.43 -13497.1 -18815.8 -24052.9 -29188 -34196.9 -39060.8 -43755.9 -48263.9 -52566.4 -56642.9 -2615.87 -7836.43 -13024 -18155.5 -23208.8 -28162.9 -32997.6 -37689.6 -42220.4 -46570.8 -50721.6 -54655.5 -2527.08 -7570.75 -12583.5 -17540 -22421.6 -27208.5 -31878.4 -36412.3 -40789.1 -44991.4 -49002.5 -52802.8 -60477.2 -64052.1 -67353.2 -70365.2 -73076.3 -75474.8 -77549.7 -79292.9 -80695.7 -81743.7 -82307.4 -80533 -58354.9 -61804.4 -64989.5 -67896.2 -70512.3 -72826 -74828.5 -76510.6 -77864.5 -78883.5 -79557.2 -79910.5 -56376.6 -59708.7 -62786.2 -65594.8 -68121.4 -70357.1 -72291.8 -73916.6 -75225.7 -76217.8 -77001.5 -79354.9 805.388 823.109 817.546 806.983 792.985 775.613 754.865 730.818 703.615 673.645 640.661 604.851 799.156 795.655 788.919 778.674 765.156 748.391 728.38 705.18 678.975 649.988 618.177 583.628 793.583 770.144 762.287 752.233 739.208 723.024 703.723 681.284 655.928 627.972 597.25 563.834 566.491 525.719 482.625 437.55 390.708 342.035 291.913 240.528 188.167 134.954 81.1849 27.1235 546.591 507.258 465.75 422.228 376.936 330.033 281.685 232.12 181.546 130.209 78.3574 26.1682 528.019 490.059 450.026 407.923 364.112 318.836 272.169 224.29 175.368 125.767 75.7255 25.3033 -27.1235 -81.1849 -134.954 -188.167 -240.528 -291.913 -342.035 -390.708 -437.55 -482.625 -525.719 -566.491 -26.1682 -78.3574 -130.209 -181.546 -232.12 -281.685 -330.033 -376.936 -422.228 -465.75 -507.258 -546.591 -25.3033 -75.7255 -125.767 -175.368 -224.29 -272.169 -318.836 -364.112 -407.923 -450.026 -490.059 -528.019 -604.851 -640.661 -673.645 -703.615 -730.818 -754.865 -775.613 -792.985 -806.983 -817.546 -823.109 -805.388 -583.628 -618.177 -649.988 -678.975 -705.18 -728.38 -748.391 -765.156 -778.674 -788.919 -795.655 -799.156 -563.834 -597.25 -627.972 -655.928 -681.284 -703.723 -723.024 -739.208 -752.233 -762.287 -770.144 -793.583 
</DataArray>
<DataArray Name="Stress_23" format="ascii" type="Float64">
-97265.5 -93463.7 -88161 -82851.2 -77613.5 -72478.7 -67469.7 -62605.8 -57910.7 -53402.7 -49100.2 -45023.8 -96018.1 -93609.1 -88634.2 -83509.4 -78458 -73503.7 -68669 -63977 -59446.3 -55095.8 -50945 -47011.2 -97492.9 -94018.9 -89070.2 -84127.2 -79244.7 -74458.2 -69788.2 -65254.4 -60877.5 -56675.2 -52664.1 -48863.8 -41189.4 -37614.5 -34313.4 -31301.5 -28590.3 -26191.8 -24116.9 -22373.7 -20970.4 -19912.5 -19205.1 -18850.3 -43311.8 -39862.2 -36677.2 -33770.4 -31154.3 -28840.6 -26838.1 -25156 -23801.8 -22781.6 -22099.1 -21756.6 -45290.1 -41957.9 -38880.4 -36071.8 -33545.2 -31309.5 -29374.8 -27750 -26441.6 -25456.2 -24796.7 -24465.8 -18850.3 -19205.1 -19912.5 -20970.4 -22373.7 -24116.9 -26191.8 -28590.3 -31301.5 -34313.4 -37614.5 -41189.4 -21756.6 -22099.1 -22781.6 -23801.8 -25156 -26838.1 -28840.6 -31154.3 -33770.4 -36677.2 -39862.2 -43311.8 -24465.8 -24796.7 -25456.2 -26441.6 -27750 -29374.8 -31309.5 -33545.2 -36071.8 -38880.4 -41957.9 -45290.1 -45023.8 -49100.2 -53402.7 -57910.7 -62605.8 -67469.7 -72478.7 -77613.5 -82851.2 -88161 -93463.7 -97265.5 -47011.2 -50945 -55095.8 -59446.3 -63977 -68669 -73503.7 -78458 -83509.4 -88634.2 -93609.1 -96018.1 -48863.8 -52664.1 -56675.2 -60877.5 -65254.4 -69788.2 -74458.2 -79244.7 -84127.2 -89070.2 -94018.9 -97492.9 -972.642 -934.666 -881.627 -828.503 -776.136 -724.753 -674.632 -625.959 -579.116 -534.041 -490.948 -450.175 -960.171 -936.097 -886.373 -835.103 -784.547 -734.981 -686.633 -639.73 -594.438 -550.917 -509.408 -470.075 -974.896 -940.171 -890.77 -841.304 -792.373 -744.498 -697.83 -652.554 -608.743 -566.64 -526.607 -488.647 -411.815 -376.005 -343.021 -313.051 -285.848 -261.802 -241.054 -223.68 -209.677 -199.016 -192.016 -188.445 -433.038 -398.49 -366.678 -337.692 -311.487 -288.286 -268.275 -251.511 -237.989 -227.732 -220.908 -217.515 -452.832 -419.416 -388.694 -360.738 -335.382 -312.943 -293.643 -277.458 -264.44 -254.453 -247.838 -244.624 -188.445 -192.016 -199.016 -209.677 -223.68 -241.054 -261.802 -285.848 -313.051 -343.021 -376.005 -411.815 -217.515 -220.908 -227.732 -237.989 -251.511 -268.275 -288.286 -311.487 -337.692 -366.678 -398.49 -433.038 -244.624 -247.838 -254.453 -264.44 -277.458 -293.643 -312.943 -335.382 -360.738 -388.694 -419.416 -452.832 -450.175 -490.948 -534.041 -579.116 -625.959 -674.632 -724.753 -776.136 -828.503 -881.627 -934.666 -972.642 -470.075 -509.408 -550.917 -594.438 -639.73 -686.633 -734.981 -784.547 -835.103 -886.373 -936.097 -960.171 -488.647 -526.607 -566.64 -608.743 -652.554 -697.83 -744.498 -792.373 -841.304 -890.77 -940.171 -974.896 
</DataArray>
<DataArray Name="Stress_33" format="ascii" type="Float64">
0 0 0 0 0 0 0 0 0 0 0 0 0 0 0 0 0 0 0 0 0 0 0 0 0 0 0 0 0 0 0 0 0 0 0 0 0 0 0 0 0 0 0 0 0 0 0 0 0 0 0 0 0 0 0 0 0 0 0 0 0 0 0 0 0 0 0 0 0 0 0 0 0 0 0 0 0 0 0 0 0 0 0 0 0 0 0 0 0 0 0 0 0 0 0 0 0 0 0 0 0 0 0 0 0 0 0 0 0 0 0 0 0 0 0 0 0 0 0 0 0 0 0 0 0 0 0 0 0 0 0 0 0 0 0 0 0 0 0 0 0 0 0 0 0 0 0 0 0 0 0 0 0 0 0 0 0 0 0 0 0 0 0 0 0 0 0 0 0 0 0 0 0 0 0 0 0 0 0 0 0 0 0 0 0 0 0 0 0 0 0 0 0 0 0 0 0 0 0 0 0 0 0 0 0 0 0 0 0 0 0 0 0 0 0 0 0 0 0 0 0 0 0 0 0 0 0 0 0 0 0 0 0 0 0 0 0 0 0 0 0 0 0 0 0 0 0 0 0 0 0 0 0 0 0 0 0 0 0 0 0 0 0 0 0 0 0 0 0 0 0 0 0 0 0 0 0 0 0 0 0 0 0 0 0 0 0 0 
</DataArray>
</CellData>
<Points>
<DataArray NumberOfComponents="3" format="ascii" type="Float64">
0 0.09 0 -0.06364 0.06364 0 -0.005886 0.089807 0 -0.011747 0.08923 0 -0.017558 0.088271 0 -0.023294 0.086933 0 -0.02893 0.085224 0 -0.034442 0.083149 0 -0.039806 0.080719 0 -0.045 0.077942 0 -0.050001 0.074832 0 -0.054789 0.071402 0 -0.059341 0.067666 0 -0.065997 0.065997 0 0 0.093333 0 -0.006104 0.093133 0 -0.012182 0.092535 0 -0.018208 0.09154 0 -0.024156 0.090153 0 -0.030001 0.08838 0 -0.035717 0.086229 0 -0.04128 0.083708 0 -0.046667 0.080829 0 -0.051853 0.077604 0 -0.056818 0.074046 0 -0.061539 0.070172 0 -0.068354 0.068354 0 0 0.096667 0 -0.006322 0.09646 0 -0.012618 0.09584 0 -0.018859 0.094809 0 -0.025019 0.093373 0 -0.031072 0.091537 0 -0.036993 0.089308 0 -0.042755 0.086698 0 -0.048333 0.083716 0 -0.053705 0.080375 0 -0.058847 0.076691 0 -0.063737 0.072678 0 -0.070711 0.070711 0 0 0.1 0 -0.00654 0.099786 0 -0.013053 0.099144 0 -0.019509 0.098079 0 -0.025882 0.096593 0 -0.032144 0.094693 0 -0.038268 0.092388 0 -0.044229 0.089687 0 -0.05 0.086603 0 -0.055557 0.083147 0 -0.060876 0.079335 0 -0.065935 0.075184 0 -0.09 0 0 -0.067666 0.059341 0 -0.071402 0.054789 0 -0.074832 0.050001 0 -0.077942 0.045 0 -0.080719 0.039806 0 -0.083149 0.034442 0 -0.085224 0.02893 0 -0.086933 0.023294 0 -0.088271 0.017558 0 -0.08923 0.011747 0 -0.089807 0.005886 0 -0.093333 0 0 -0.070172 0.061539 0 -0.074046 0.056818 0 -0.077604 0.051853 0 -0.080829 0.046667 0 -0.083708 0.04128 0 -0.086229 0.035717 0 -0.08838 0.030001 0 -0.090153 0.024156 0 -0.09154 0.018208 0 -0.092535 0.012182 0 -0.093133 0.006104 0 -0.096667 0 0 -0.072678 0.063737 0 -0.076691 0.058847 0 -0.080375 0.053705 0 -0.083716 0.048333 0 -0.086698 0.042755 0 -0.089308 0.036993 0 -0.091537 0.031072 0 -0.093373 0.025019 0 -0.094809 0.018859 0 -0.09584 0.012618 0 -0.09646 0.006322 0 -0.1 0 0 -0.075184 0.065935 0 -0.079335 0.060876 0 -0.083147 0.055557 0 -0.086603 0.05 0 -0.089687 0.044229 0 -0.092388 0.038268 0 -0.094693 0.032144 0 -0.096593 0.025882 0 -0.098079 0.019509 0 -0.099144 0.013053 0 -0.099786 0.00654 0 -0.06364 -0.06364 0 -0.089807 -0.005886 0 -0.08923 -0.011747 0 -0.088271 -0.017558 0 -0.086933 -0.023294 0 -0.085224 -0.02893 0 -0.083149 -0.034442 0 -0.080719 -0.039806 0 -0.077942 -0.045 0 -0.074832 -0.050001 0 -0.071402 -0.054789 0 -0.067666 -0.059341 0 -0.065997 -0.065997 0 -0.093133 -0.006104 0 -0.092535 -0.012182 0 -0.09154 -0.018208 0 -0.090153 -0.024156 0 -0.08838 -0.030001 0 -0.086229 -0.035717 0 -0.083708 -0.04128 0 -0.080829 -0.046667 0 -0.077604 -0.051853 0 -0.074046 -0.056818 0 -0.070172 -0.061539 0 -0.068354 -0.068354 0 -0.09646 -0.006322 0 -0.09584 -0.012618 0 -0.094809 -0.018859 0 -0.093373 -0.025019 0 -0.091537 -0.031072 0 -0.089308 -0.036993 0 -0.086698 -0.042755 0 -0.083716 -0.048333 0 -0.080375 -0.053705 0 -0.076691 -0.058847 0 -0.072678 -0.063737 0 -0.070711 -0.070711 0 -0.099786 -0.00654 0 -0.099144 -0.013053 0 -0.098079 -0.019509 0 -0.096593 -0.025882 0 -0.094693 -0.032144 0 -0.092388 -0.038268 0 -0.089687 -0.044229 0 -0.086603 -0.05 0 -0.083147 -0.055557 0 -0.079335 -0.060876 0 -0.075184 -0.065935 0 0 -0.09 0 -0.059341 -0.067666 0 -0.054789 -0.071402 0 -0.050001 -0.074832 0 -0.045 -0.077942 0 -0.039806 -0.080719 0 -0.034442 -0.083149 0 -0.02893 -0.085224 0 -0.023294 -0.086933 0 -0.017558 -0.088271 0 -0.011747 -0.08923 0 -0.005886 -0.089807 0 0 -0.093333 0 -0.061539 -0.070172 0 -0.056818 -0.074046 0 -0.051853 -0.077604 0 -0.046667 -0.080829 0 -0.04128 -0.083708 0 -0.035717 -0.086229 0 -0.030001 -0.08838 0 -0.024156 -0.090153 0 -0.018208 -0.09154 0 -0.012182 -0.092535 0 -0.006104 -0.093133 0 0 -0.096667 0 -0.063737 -0.072678 0 -0.058847 -0.076691 0 -0.053705 -0.080375 0 -0.048333 -0.083716 0 -0.042755 -0.086698 0 -0.036993 -0.089308 0 -0.031072 -0.091537 0 -0.025019 -0.093373 0 -0.018859 -0.094809 0 -0.012618 -0.09584 0 -0.006322 -0.09646 0 0 -0.1 0 -0.065935 -0.075184 0 -0.060876 -0.079335 0 -0.055557 -0.083147 0 -0.05 -0.086603 0 -0.044229 -0.089687 0 -0.038268 -0.092388 0 -0.032144 -0.094693 0 -0.025882 -0.096593 0 -0.019509 -0.098079 0 -0.013053 -0.099144 0 -0.00654 -0.099786 0 0.06364 -0.06364 0 0.005886 -0.089807 0 0.011747 -0.08923 0 0.017558 -0.088271 0 0.023294 -0.086933 0 0.02893 -0.085224 0 0.034442 -0.083149 0 0.039806 -0.080719 0 0.045 -0.077942 0 0.050001 -0.074832 0 0.054789 -0.071402 0 0.059341 -0.067666 0 0.065997 -0.065997 0 0.006104 -0.093133 0 0.012182 -0.092535 0 0.018208 -0.09154 0 0.024156 -0.090153 0 0.030001 -0.08838 0 0.035717 -0.086229 0 0.04128 -0.083708 0 0.046667 -0.080829 0 0.051853 -0.077604 0 0.056818 -0.074046 0 0.061539 -0.070172 0 0.068354 -0.068354 0 0.006322 -0.09646 0 0.012618 -0.09584 0 0.018859 -0.094809 0 0.025019 -0.093373 0 0.031072 -0.091537 0 0.036993 -0.089308 0 0.042755 -0.086698 0 0.048333 -0.083716 0 0.053705 -0.080375 0 0.058847 -0.076691 0 0.063737 -0.072678 0 0.070711 -0.070711 0 0.00654 -0.099786 0 0.013053 -0.099144 0 0.019509 -0.098079 0 0.025882 -0.096593 0 0.032144 -0.094693 0 0.038268 -0.092388 0 0.044229 -0.089687 0 0.05 -0.086603 0 0.055557 -0.083147 0 0.060876 -0.079335 0 0.065935 -0.075184 0 0.09 0 0 0.067666 -0.059341 0 0.071402 -0.054789 0 0.074832 -0.050001 0 0.077942 -0.045 0 0.080719 -0.039806 0 0.083149 -0.034442 0 0.085224 -0.02893 0 0.086933 -0.023294 0 0.088271 -0.017558 0 0.08923 -0.011747 0 0.089807 -0.005886 0 0.093333 0 0 0.070172 -0.061539 0 0.074046 -0.056818 0 0.077604 -0.051853 0 0.080829 -0.046667 0 0.083708 -0.04128 0 0.086229 -0.035717 0 0.08838 -0.030001 0 0.090153 -0.024156 0 0.09154 -0.018208 0 0.092535 -0.012182 0 0.093133 -0.006104 0 0.096667 0 0 0.072678 -0.063737 0 0.076691 -0.058847 0 0.080375 -0.053705 0 0.083716 -0.048333 0 0.086698 -0.042755 0 0.089308 -0.036993 0 0.091537 -0.031072 0 0.093373 -0.025019 0 0.094809 -0.018859 0 0.09584 -0.012618 0 0.09646 -0.006322 0 0.1 0 0 0.075184 -0.065935 0 0.079335 -0.060876 0 0.083147 -0.055557 0 0.086603 -0.05 0 0.089687 -0.044229 0 0.092388 -0.038268 0 0.094693 -0.032144 0 0.096593 -0.025882 0 0.098079 -0.019509 0 0.099144 -0.013053 0 0.099786 -0.00654 0 0.06364 0.06364 0 0.089807 0.005886 0 0.08923 0.011747 0 0.088271 0.017558 0 0.086933 0.023294 0 0.085224 0.02893 0 0.083149 0.034442 0 0.080719 0.039806 0 0.077942 0.045 0 0.074832 0.050001 0 0.071402 0.054789 0 0.067666 0.059341 0 0.065997 0.065997 0 0.093133 0.006104 0 0.092535 0.012182 0 0.09154 0.018208 0 0.090153 0.024156 0 0.08838 0.030001 0 0.086229 0.035717 0 0.083708 0.04128 0 0.080829 0.046667 0 0.077604 0.051853 0 0.074046 0.056818 0 0.070172 0.061539 0 0.068354 0.068354 0 0.09646 0.006322 0 0.09584 0.012618 0 0.094809 0.018859 0 0.093373 0.025019 0 0.091537 0.031072 0 0.089308 0.036993 0 0.086698 0.042755 0 0.083716 0.048333 0 0.080375 0.053705 0 0.076691 0.058847 0 0.072678 0.063737 0 0.070711 0.070711 0 0.099786 0.00654 0 0.099144 0.013053 0 0.098079 0.019509 0 0.096593 0.025882 0 0.094693 0.032144 0 0.092388 0.038268 0 0.089687 0.044229 0 0.086603 0.05 0 0.083147 0.055557 0 0.079335 0.060876 0 0.075184 0.065935 0 0.059341 0.067666 0 0.054789 0.071402 0 0.050001 0.074832 0 0.045 0.077942 0 0.039806 0.080719 0 0.034442 0.083149 0 0.02893 0.085224 0 0.023294 0.086933 0 0.017558 0.088271 0 0.011747 0.08923 0 0.005886 0.089807 0 0.061539 0.070172 0 0.056818 0.074046 0 0.051853 0.077604 0 0.046667 0.080829 0 0.04128 0.083708 0 0.035717 0.086229 0 0.030001 0.08838 0 0.024156 0.090153 0 0.018208 0.09154 0 0.012182 0.092535 0 0.006104 0.093133 0 0.063737 0.072678 0 0.058847 0.076691 0 0.053705 0.080375 0 0.048333 0.083716 0 0.042755 0.086698 0 0.036993 0.089308 0 0.031072 0.091537 0 0.025019 0.093373 0 0.018859 0.094809 0 0.012618 0.09584 0 0.006322 0.09646 0 0.065935 0.075184 0 0.060876 0.079335 0 0.055557 0.083147 0 0.05 0.086603 0 0.044229 0.089687 0 0.038268 0.092388 0 0.032144 0.094693 0 0.025882 0.096593 0 0.019509 0.098079 0 0.013053 0.099144 0 0.00654 0.099786 0 
</DataArray>
</Points>
<Cells>
<DataArray Name="connectivity" format="ascii" type="Int64">