<?xml version="1.0"?>
<VTKFile byte_order="LittleEndian" type="UnstructuredGrid" version="0.1">
<UnstructuredGrid>
<Piece NumberOfCells="288" NumberOfPoints="384">
<PointData>
<DataArray Name="Warping_X" format="ascii" type="Float64">
-0.0259943 0.567385 0.0519373 0.128214 0.201649 0.271036 0.335257 0.393262 0.444122 0.487012 0.521248 0.546301 0.561748 0.612028 -0.022728 0.0606321 0.142344 0.220989 0.295299 0.36407 0.426175 0.480602 0.526487 0.563065 0.589769 0.606172 0.658333 -0.0197021 0.0695748 0.156916 0.240979 0.320405 0.3939 0.460268 0.518419 0.56739 0.606409 0.634849 0.652244 0.706289 -0.0163298 0.0787004 0.171897 0.26159 0.346338 0.424743 0.495522 0.557527 0.609734 0.651286 0.681515 0.699952 7.41796e-12 0.563125 0.549089 0.525515 0.492859 0.451685 0.402708 0.346784 0.284876 0.21806 0.147489 0.0743833 7.42275e-12 0.607255 0.591969 0.566454 0.53117 0.486718 0.433897 0.373606 0.306887 0.2349 0.158876 0.0801244 7.42259e-12 0.653032 0.636462 0.60892 0.570907 0.523088 0.466268 0.401445 0.329743 0.252388 0.170706 0.0860833 7.41848e-12 0.700445 0.68254 0.652918 0.612086 0.560748 0.499799 0.430296 0.353424 0.270497 0.182948 0.0922566 -0.567385 -0.0743833 -0.147489 -0.21806 -0.284876 -0.346784 -0.402708 -0.451685 -0.492859 -0.525515 -0.549089 -0.563125 -0.612028 -0.0801244 -0.158876 -0.2349 -0.306887 -0.373606 -0.433897 -0.486718 -0.53117 -0.566454 -0.591969 -0.607255 -0.658333 -0.0860833 -0.170706 -0.252388 -0.329743 -0.401445 -0.466268 -0.523088 -0.570907 -0.60892 -0.636462 -0.653032 -0.706289 -0.0922566 -0.182948 -0.270497 -0.353424 -0.430296 -0.499799 -0.560748 -0.612086 -0.652918 -0.68254 -0.700445 0.0259943 -0.561748 -0.546301 -0.521248 -0.487012 -0.444122 -0.393262 -0.335257 -0.271036 -0.201649 -0.128214 -0.0519373 0.022728 -0.606172 -0.589769 -0.563065 -0.526487 -0.480602 -0.426175 -0.36407 -0.295299 -0.220989 -0.142344 -0.0606321 0.0197021 -0.652244 -0.634849 -0.606409 -0.56739 -0.518419 -0.460268 -0.3939 -0.320405 -0.240979 -0.156916 -0.0695748 0.0163298 -0.699952 -0.681515 -0.651286 -0.609734 -0.557527 -0.495522 -0.424743 -0.346338 -0.26159 -0.171897 -0.0787004 0.621623 0.103264 0.179516 0.253359 0.323464 0.388567 0.447489 0.499172 0.542679 0.577224 0.602189 0.617076 0.666803 0.10628 0.188619 0.268374 0.344088 0.414413 0.478076 0.533935 0.581001 0.6184 0.645471 0.661709 0.71359 0.109463 0.198161 0.284017 0.365528 0.44124 0.509807 0.569991 0.620703 0.661053 0.690313 0.707934 0.761996 0.112916 0.2081 0.300268 0.387778 0.469062 0.542673 0.607313 0.661818 0.705209 0.73671 0.755764 -1.137e-11 0.615701 0.599404 0.572962 0.536838 0.491616 0.43805 0.377046 0.309629 0.236948 0.160237 0.0808042 -1.13824e-11 0.660629 0.643277 0.61502 0.57633 0.527832 0.470367 0.404891 0.332513 0.254474 0.172097 0.0867869 -1.13814e-11 0.70715 0.688709 0.658555 0.617202 0.565342 0.503828 0.433718 0.356214 0.272629 0.184388 0.0929803 -1.13697e-11 0.755276 0.735696 0.703593 0.659488 0.604117 0.538425 0.463539 0.380724 0.291392 0.197081 0.099384 -0.621623 -0.0808042 -0.160237 -0.236948 -0.309629 -0.377046 -0.43805 -0.491616 -0.536838 -0.572962 -0.599404 -0.615701 -0.666803 -0.0867869 -0.172097 -0.254474 -0.332513 -0.404891 -0.470367 -0.527832 -0.57633 -0.61502 -0.643277 -0.660629 -0.71359 -0.0929803 -0.184388 -0.272629 -0.356214 -0.433718 -0.503828 -0.565342 -0.617202 -0.658555 -0.688709 -0.70715 -0.761996 -0.099384 -0.197081 -0.291392 -0.380724 -0.463539 -0.538425 -0.604117 -0.659488 -0.703593 -0.735696 -0.755276 -0.617076 -0.602189 -0.577224 -0.542679 -0.499172 -0.447489 -0.388567 -0.323464 -0.253359 -0.179516 -0.103264 -0.661709 -0.645471 -0.6184 -0.581001 -0.533935 -0.478076 -0.414413 -0.344088 -0.268374 -0.188619 -0.10628 -0.707934 -0.690313 -0.661053 -0.620703 -0.569991 -0.509807 -0.44124 -0.365528 -0.284017 -0.198161 -0.109463 -0.755764 -0.73671 -0.705209 -0.661818 -0.607313 -0.542673 -0.469062 -0.387778 -0.300268 -0.2081 -0.112916 
</DataArray>
<DataArray Name="Warping_Y" format="ascii" type="Float64">
-0.594443 0.0289232 -0.583978 -0.564034 -0.534832 -0.496798 -0.45054 -0.39675 -0.336311 -0.270157 -0.199385 -0.12513 -0.0486165 0.0286963 -0.639301 -0.628283 -0.607044 -0.575853 -0.535171 -0.485623 -0.427994 -0.363183 -0.29224 -0.216321 -0.136638 -0.054526 0.0284508 -0.685876 -0.674251 -0.651679 -0.618423 -0.574998 -0.522057 -0.460414 -0.391091 -0.315179 -0.233901 -0.148606 -0.0606707 0.0281844 -0.734112 -0.721856 -0.697921 -0.662555 -0.616275 -0.559802 -0.49404 -0.420018 -0.338958 -0.252144 -0.161011 -0.0670517 0.616661 0.106203 0.181937 0.254896 0.323861 0.387706 0.445343 0.49585 0.538358 0.572192 0.596757 0.611661 0.659755 0.111649 0.192953 0.271292 0.345337 0.413885 0.475791 0.530015 0.575674 0.611999 0.638386 0.654387 0.704505 0.117293 0.204391 0.288294 0.367632 0.441063 0.507377 0.565493 0.614407 0.65332 0.6816 0.698755 0.750871 0.123131 0.216224 0.305918 0.390725 0.469219 0.540127 0.602242 0.654548 0.696161 0.726375 0.744725 0.0289232 0.611661 0.596757 0.572192 0.538358 0.49585 0.445343 0.387706 0.323861 0.254896 0.181937 0.106203 0.0286963 0.654387 0.638386 0.611999 0.575674 0.530015 0.475791 0.413885 0.345337 0.271292 0.192953 0.111649 0.0284508 0.698755 0.6816 0.65332 0.614407 0.565493 0.507377 0.441063 0.367632 0.288294 0.204391 0.117293 0.0281844 0.744725 0.726375 0.696161 0.654548 0.602242 0.540127 0.469219 0.390725 0.305918 0.216224 0.123131 -0.594443 -0.0486165 -0.12513 -0.199385 -0.270157 -0.336311 -0.39675 -0.45054 -0.496798 -0.534832 -0.564034 -0.583978 -0.639301 -0.054526 -0.136638 -0.216321 -0.29224 -0.363183 -0.427994 -0.485623 -0.535171 -0.575853 -0.607044 -0.628283 -0.685876 -0.0606707 -0.148606 -0.233901 -0.315179 -0.391091 -0.460414 -0.522057 -0.574998 -0.618423 -0.651679 -0.674251 -0.734112 -0.0670517 -0.161011 -0.252144 -0.338958 -0.420018 -0.49404 -0.559802 -0.616275 -0.662555 -0.697921 -0.721856 -0.0289403 -0.594671 -0.584321 -0.563556 -0.532802 -0.492685 -0.443932 -0.387474 -0.324308 -0.255609 -0.182599 -0.106597 -0.0287226 -0.63945 -0.628086 -0.605528 -0.572241 -0.528869 -0.476231 -0.415285 -0.34715 -0.273066 -0.194342 -0.112416 -0.028482 -0.685804 -0.673379 -0.648959 -0.613047 -0.566317 -0.509626 -0.444057 -0.370778 -0.291104 -0.206488 -0.118422 -0.0282162 -0.733706 -0.720198 -0.693877 -0.655229 -0.605006 -0.544158 -0.473783 -0.395185 -0.309747 -0.219017 -0.124614 0.572275 0.0489779 0.125763 0.200074 0.270587 0.336072 0.395344 0.447394 0.491276 0.526249 0.551666 0.567096 0.618993 0.0552422 0.137979 0.218054 0.294018 0.364558 0.428423 0.484479 0.531757 0.569419 0.596802 0.613417 0.667354 0.0617388 0.150646 0.236659 0.318282 0.394052 0.462643 0.522875 0.57365 0.614093 0.643512 0.661368 0.717345 0.0684716 0.163745 0.255921 0.343374 0.424549 0.498051 0.562562 0.616969 0.660304 0.691796 0.710934 -0.0289403 0.567096 0.551666 0.526249 0.491276 0.447394 0.395344 0.336072 0.270587 0.200074 0.125763 0.0489779 -0.0287226 0.613417 0.596802 0.569419 0.531757 0.484479 0.428423 0.364558 0.294018 0.218054 0.137979 0.0552422 -0.028482 0.661368 0.643512 0.614093 0.57365 0.522875 0.462643 0.394052 0.318282 0.236659 0.150646 0.0617388 -0.0282162 0.710934 0.691796 0.660304 0.616969 0.562562 0.498051 0.424549 0.343374 0.255921 0.163745 0.0684716 -0.106597 -0.182599 -0.255609 -0.324308 -0.387474 -0.443932 -0.492685 -0.532802 -0.563556 -0.584321 -0.594671 -0.112416 -0.194342 -0.273066 -0.34715 -0.415285 -0.476231 -0.528869 -0.572241 -0.605528 -0.628086 -0.63945 -0.118422 -0.206488 -0.291104 -0.370778 -0.444057 -0.509626 -0.566317 -0.613047 -0.648959 -0.673379 -0.685804 -0.124614 -0.219017 -0.309747 -0.395185 -0.473783 -0.544158 -0.605006 -0.655229 -0.693877 -0.720198 -0.733706 
</DataArray>
<DataArray Name="Warping_Z" format="ascii" type="Float64">
0 0 0 0 0 0 0 0 0 0 0 0 0 0 0 0 0 0 0 0 0 0 0 0 0 0 0 0 0 0 0 0 0 0 0 0 0 0 0 0 0 0 0 0 0 0 0 0 0 0 0 0 0 0 0 0 0 0 0 0 0 0 0 0 0 0 0 0 0 0 0 0 0 0 0 0 0 0 0 0 0 0 0 0 0 0 0 0 0 0 0 0 0 0 0 0 0 0 0 0 0 0 0 0 0 0 0 0 0 0 0 0 0 0 0 0 0 0 0 0 0 0 0 0 0 0 0 0 0 0 0 0 0 0 0 0 0 0 0 0 0 0 0 0 0 0 0 0 0 0 0 0 0 0 0 0 0 0 0 0 0 0 0 0 0 0 0 0 0 0 0 0 0 0 0 0 0 0 0 0 0 0 0 0 0 0 0 0 0 0 0 0 0 0 0 0 0 0 0 0 0 0 0 0 0 0 0 0 0 0 0 0 0 0 0 0 0 0 0 0 0 0 0 0 0 0 0 0 0 0 0 0 0 0 0 0 0 0 0 0 0 0 0 0 0 0 0 0 0 0 0 0 0 0 0 0 0 0 0 0 0 0 0 0 0 0 0 0 0 0 0 0 0 0 0 0 0 0 0 0 0 0 0 0 0 0 0 0 0 0 0 0 0 0 0 0 0 0 0 0 0 0 0 0 0 0 0 0 0 0 0 0 0 0 0 0 0 0 0 0 0 0 0 0 0 0 0 0 0 0 0 0 0 0 0 0 0 0 0 0 0 0 0 0 0 0 0 0 0 0 0 0 0 0 0 0 0 0 0 0 0 0 0 0 0 0 0 0 0 0 0 0 0 0 0 0 0 0 0 0 0 0 0 0 
</DataArray>
</PointData>
<CellData>
<DataArray Name="MaterialId" format="ascii" type="Float64">
1 1 1 1 1 1 1 1 1 1 1 1 1 1 1 1 1 1 1 1 1 1 1 1 1 1 1 1 1 1 1 1 1 1 1 1 1 1 1 1 1 1 1 1 1 1 1 1 1 1 1 1 1 1 1 1 1 1 1 1 1 1 1 1 1 1 1 1 1 1 1 1 1 1 1 1 1 1 1 1 1 1 1 1 1 1 1 1 1 1 1 1 1 1 1 1 1 1 1 1 1 1 1 1 1 1 1 1 1 1 1 1 1 1 1 1 1 1 1 1 1 1 1 1 1 1 1 1 1 1 1 1 1 1 1 1 1 1 1 1 1 1 1 1 2 2 2 2 2 2 2 2 2 2 2 2 2 2 2 2 2 2 2 2 2 2 2 2 2 2 2 2 2 2 2 2 2 2 2 2 2 2 2 2 2 2 2 2 2 2 2 2 2 2 2 2 2 2 2 2 2 2 2 2 2 2 2 2 2 2 2 2 2 2 2 2 2 2 2 2 2 2 2 2 2 2 2 2 2 2 2 2 2 2 2 2 2 2 2 2 2 2 2 2 2 2 2 2 2 2 2 2 2 2 2 2 2 2 2 2 2 2 2 2 2 2 2 2 2 2 2 2 2 2 2 2 2 2 2 2 2 2 2 2 2 2 2 2 
</DataArray>
<DataArray Name="FiberAngle" format="ascii" type="Float64">
0 0 0 0 0 0 0 0 0 0 0 0 0 0 0 0 0 0 0 0 0 0 0 0 0 0 0 0 0 0 0 0 0 0 0 0 0 0 0 0 0 0 0 0 0 0 0 0 0 0 0 0 0 0 0 0 0 0 0 0 0 0 0 0 0 0 0 0 0 0 0 0 0 0 0 0 0 0 0 0 0 0 0 0 0 0 0 0 0 0 0 0 0 0 0 0 0 0 0 0 0 0 0 0 0 0 0 0 0 0 0 0 0 0 0 0 0 0 0 0 0 0 0 0 0 0 0 0 0 0 0 0 0 0 0 0 0 0 0 0 0 0 0 0 0 0 0 0 0 0 0 0 0 0 0 0 0 0 0 0 0 0 0 0 0 0 0 0 0 0 0 0 0 0 0 0 0 0 0 0 0 0 0 0 0 0 0 0 0 0 0 0 0 0 0 0 0 0 0 0 0 0 0 0 0 0 0 0 0 0 0 0 0 0 0 0 0 0 0 0 0 0 0 0 0 0 0 0 0 0 0 0 0 0 0 0 0 0 0 0 0 0 0 0 0 0 0 0 0 0 0 0 0 0 0 0 0 0 0 0 0 0 0 0 0 0 0 0 0 0 0 0 0 0 0 0 0 0 0 0 0 0 0 0 0 0 0 0 
</DataArray>
<DataArray Name="Strain_11" format="ascii" type="Float64">
-13.4966 -13.4415 -13.3253 -13.1511 -12.9204 -12.634 -12.2932 -11.8996 -11.455 -10.9614 -10.4211 -9.83639 -13.9371 -13.8762 -13.7565 -13.5788 -13.3428 -13.0497 -12.7008 -12.2974 -11.8414 -11.3347 -10.7794 -10.178 -14.3756 -14.3139 -14.1919 -14.01 -13.7683 -13.468 -13.1102 -12.6966 -12.2286 -11.7081 -11.1375 -10.5188 -9.20984 -8.54435 -7.84268 -7.10805 -6.34352 -5.55228 -4.738 -3.90367 -3.05322 -2.18991 -1.31762 -0.439806 -9.53299 -8.84707 -8.12327 -7.36454 -6.57439 -5.75602 -4.91278 -4.04866 -3.16712 -2.27197 -1.36706 -0.456345 -9.85482 -9.14816 -8.40177 -7.619 -6.80308 -5.9574 -5.08578 -4.19177 -3.27952 -2.353 -1.41584 -0.47264 0.439806 1.31762 2.18991 3.05322 3.90367 4.738 5.55228 6.34352 7.10805 7.84268 8.54435 9.20984 0.456345 1.36706 2.27197 3.16712 4.04866 4.91278 5.75602 6.57439 7.36454 8.12327 8.84707 9.53299 0.47264 1.41584 2.353 3.27952 4.19177 5.08578 5.9574 6.80308 7.619 8.40177 9.14816 9.85482 9.83639 10.4211 10.9614 11.455 11.8996 12.2932 12.634 12.9204 13.1511 13.3253 13.4415 13.4966 10.178 10.7794 11.3347 11.8414 12.2974 12.7008 13.0497 13.3428 13.5788 13.7565 13.8762 13.9371 10.5188 11.1375 11.7081 12.2286 12.6966 13.1102 13.468 13.7683 14.01 14.1919 14.3139 14.3756 13.3974 13.3341 13.2215 13.0519 12.8268 12.5472 12.214 11.8287 11.3928 10.908 10.3765 9.80024 13.9335 13.8765 13.7575 13.579 13.3425 13.0488 12.6992 12.2951 11.8384 11.331 10.7751 10.1732 14.4731 14.4149 14.2892 14.1027 13.8551 13.5478 13.1822 12.7601 12.2832 11.7537 11.1741 10.547 9.18162 8.52334 7.82803 7.09878 6.3386 5.55067 4.73868 3.90569 3.05573 2.19222 1.31922 0.440376 9.52768 8.84145 8.1175 7.35877 6.56881 5.75076 4.90802 4.04455 3.16378 2.26951 1.36555 0.455836 9.87512 9.16139 8.40891 7.62112 6.80133 5.95295 5.07977 4.18524 3.2734 2.34805 1.41263 0.471533 -0.440376 -1.31922 -2.19222 -3.05573 -3.90569 -4.73868 -5.55067 -6.3386 -7.09878 -7.82803 -8.52334 -9.18162 -0.455836 -1.36555 -2.26951 -3.16378 -4.04455 -4.90802 -5.75076 -6.56881 -7.35877 -8.1175 -8.84145 -9.52768 -0.471533 -1.41263 -2.34805 -3.2734 -4.18524 -5.07977 -5.95295 -6.80133 -7.62112 -8.40891 -9.16139 -9.87512 -9.80024 -10.3765 -10.908 -11.3928 -11.8287 -12.214 -12.5472 -12.8268 -13.0519 -13.2215 -13.3341 -13.3974 -10.1732 -10.7751 -11.331 -11.8384 -12.2951 -12.6992 -13.0488 -13.3425 -13.579 -13.7575 -13.8765 -13.9335 -10.547 -11.1741 -11.7537 -12.2832 -12.7601 -13.1822 -13.5478 -13.8551 -14.1027 -14.2892 -14.4149 -14.4731 
</DataArray>
<DataArray Name="Strain_22" format="ascii" type="Float64">
-13.4343 -13.3778 -13.263 -13.0934 -12.8676 -12.5872 -12.2531 -11.8667 -11.4296 -10.9435 -10.4103 -9.83236 -13.9377 -13.8759 -13.7582 -13.5799 -13.3436 -13.0501 -12.7007 -12.297 -11.8404 -11.3333 -10.7777 -10.1759 -14.4381 -14.373 -14.2509 -14.0644 -13.8179 -13.5118 -13.1476 -12.7269 -12.2517 -11.7241 -11.1464 -10.5213 -9.21188 -8.55157 -7.8541 -7.12248 -6.35989 -5.56944 -4.75466 -3.919 -3.06609 -2.19972 -1.3237 -0.441883 -9.53054 -8.84439 -8.1204 -7.36173 -6.57153 -5.75328 -4.91041 -4.04647 -3.16536 -2.27071 -1.3663 -0.456067 -9.85146 -9.13981 -8.38949 -7.60379 -6.78613 -5.93987 -5.06867 -4.17631 -3.26649 -2.34302 -1.4097 -0.470534 0.441883 1.3237 2.19972 3.06609 3.919 4.75466 5.56944 6.35989 7.12248 7.8541 8.55157 9.21188 0.456067 1.3663 2.27071 3.16536 4.04647 4.91041 5.75328 6.57153 7.36173 8.1204 8.84439 9.53054 0.470534 1.4097 2.34302 3.26649 4.17631 5.06867 5.93987 6.78613 7.60379 8.38949 9.13981 9.85146 9.83236 10.4103 10.9435 11.4296 11.8667 12.2531 12.5872 12.8676 13.0934 13.263 13.3778 13.4343 10.1759 10.7777 11.3333 11.8404 12.297 12.7007 13.0501 13.3436 13.5799 13.7582 13.8759 13.9377 10.5213 11.1464 11.7241 12.2517 12.7269 13.1476 13.5118 13.8179 14.0644 14.2509 14.373 14.4381 13.4456 13.4022 13.284 13.1108 12.8809 12.5955 12.2559 11.8636 11.4205 10.9287 10.3901 9.8073 13.936 13.8738 13.7538 13.5764 13.3407 13.0479 12.6992 12.2963 11.8406 11.3343 10.7794 10.1783 14.4233 14.3471 14.2265 14.0442 13.8022 13.5016 13.1433 12.7291 12.2603 11.739 11.1672 10.5474 9.18277 8.51938 7.81991 7.08748 6.32528 5.53644 4.72444 3.89264 3.04454 2.18374 1.31388 0.438569 9.53357 8.84789 8.12423 7.36573 6.57554 5.75716 4.91399 4.04961 3.16793 2.27263 1.36748 0.456467 9.88202 9.17379 8.42569 7.64095 6.82295 5.97502 5.10089 4.20443 3.2895 2.36009 1.4202 0.474075 -0.438569 -1.31388 -2.18374 -3.04454 -3.89264 -4.72444 -5.53644 -6.32528 -7.08748 -7.81991 -8.51938 -9.18277 -0.456467 -1.36748 -2.27263 -3.16793 -4.04961 -4.91399 -5.75716 -6.57554 -7.36573 -8.12423 -8.84789 -9.53357 -0.474075 -1.4202 -2.36009 -3.2895 -4.20443 -5.10089 -5.97502 -6.82295 -7.64095 -8.42569 -9.17379 -9.88202 -9.8073 -10.3901 -10.9287 -11.4205 -11.8636 -12.2559 -12.5955 -12.8809 -13.1108 -13.284 -13.4022 -13.4456 -10.1783 -10.7794 -11.3343 -11.8406 -12.2963 -12.6992 -13.0479 -13.3407 -13.5764 -13.7538 -13.8738 -13.936 -10.5474 -11.1672 -11.739 -12.2603 -12.7291 -13.1433 -13.5016 -13.8022 -14.0442 -14.2265 -14.3471 -14.4233 
</DataArray>
<DataArray Name="Strain_12" format="ascii" type="Float64">
0.00297298 -0.0143939 -0.0206128 -0.0280951 -0.0348974 -0.0404007 -0.0449324 -0.0481411 -0.0500032 -0.050626 -0.0499557 -0.0480456 -0.0250059 0.00246391 0.00116294 0.00131532 0.00175455 0.00178754 0.00206007 0.00214181 0.00194924 0.00193824 0.00162344 0.00137883 0.0220616 0.0115778 0.0198037 0.0270708 0.0334291 0.0388851 0.0429909 0.046071 0.0478307 0.0482888 0.0475047 0.045598 -0.0451392 -0.0412774 -0.036823 -0.0317758 -0.0264633 -0.0213126 -0.0162034 -0.0116806 -0.0077503 -0.00463455 -0.00251149 -0.00139747 0.000993504 0.000486807 0.000136256 -0.00047399 -0.000996518 -0.00140572 -0.00192184 -0.00234448 -0.0026846 -0.00298088 -0.00314321 -0.00326918 0.0426351 0.0388197 0.0342552 0.0293321 0.0241882 0.018897 0.0139892 0.00945724 0.00561708 0.00256863 0.000414261 -0.000636223 -0.00139747 -0.00251149 -0.00463455 -0.0077503 -0.0116806 -0.0162034 -0.0213126 -0.0264633 -0.0317758 -0.036823 -0.0412774 -0.0451392 -0.00326918 -0.00314321 -0.00298088 -0.0026846 -0.00234448 -0.00192184 -0.00140572 -0.000996518 -0.00047399 0.000136256 0.000486807 0.000993504 -0.000636223 0.000414261 0.00256863 0.00561708 0.00945724 0.0139892 0.018897 0.0241882 0.0293321 0.0342552 0.0388197 0.0426351 -0.0480456 -0.0499557 -0.050626 -0.0500032 -0.0481411 -0.0449324 -0.0404007 -0.0348974 -0.0280951 -0.0206128 -0.0143939 0.00297298 0.00137883 0.00162344 0.00193824 0.00194924 0.00214181 0.00206007 0.00178754 0.00175455 0.00131532 0.00116294 0.00246391 -0.0250059 0.045598 0.0475047 0.0482888 0.0478307 0.046071 0.0429909 0.0388851 0.0334291 0.0270708 0.0198037 0.0115778 0.0220616 0.00393952 -0.0150272 -0.0195911 -0.0277245 -0.0340749 -0.0397384 -0.0441458 -0.0474533 -0.0495414 -0.0503111 -0.0499012 -0.0483909 -0.0301305 0.00649774 0.00185343 0.00333571 0.00386287 0.00459745 0.00476207 0.00483741 0.0048927 0.00439598 0.00397594 0.0031612 0.0267879 0.0109689 0.0223049 0.0302334 0.037246 0.0430086 0.0478017 0.0509391 0.0526837 0.0530145 0.0519058 0.0494365 -0.0458049 -0.0424239 -0.0382523 -0.0337393 -0.0290038 -0.0240714 -0.019537 -0.0152611 -0.0116529 -0.00880291 -0.00680095 -0.00580721 0.00226241 0.00130115 5.42055e-06 -0.00106295 -0.00227792 -0.00355201 -0.00460748 -0.00561403 -0.00647071 -0.00711532 -0.00760389 -0.00780851 0.0458263 0.0412215 0.0359189 0.0299864 0.0238125 0.0178123 0.0119222 0.0066633 0.00210876 -0.00147269 -0.00389512 -0.00518412 -0.00580721 -0.00680095 -0.00880291 -0.0116529 -0.0152611 -0.019537 -0.0240714 -0.0290038 -0.0337393 -0.0382523 -0.0424239 -0.0458049 -0.00780851 -0.00760389 -0.00711532 -0.00647071 -0.00561403 -0.00460748 -0.00355201 -0.00227792 -0.00106295 5.42056e-06 0.00130115 0.00226241 -0.00518412 -0.00389512 -0.00147269 0.00210876 0.0066633 0.0119222 0.0178123 0.0238125 0.0299864 0.0359189 0.0412215 0.0458263 -0.0483909 -0.0499012 -0.0503111 -0.0495414 -0.0474533 -0.0441458 -0.0397384 -0.0340749 -0.0277245 -0.0195911 -0.0150272 0.00393952 0.0031612 0.00397594 0.00439598 0.0048927 0.00483741 0.00476207 0.00459745 0.00386287 0.00333571 0.00185343 0.00649774 -0.0301305 0.0494365 0.0519058 0.0530145 0.0526837 0.0509391 0.0478017 0.0430086 0.037246 0.0302334 0.0223049 0.0109689 0.0267879 
</DataArray>
<DataArray Name="Strain_13" format="ascii" type="Float64">
0 0 0 0 0 0 0 0 0 0 0 0 0 0 0 0 0 0 0 0 0 0 0 0 0 0 0 0 0 0 0 0 0 0 0 0 0 0 0 0 0 0 0 0 0 0 0 0 0 0 0 0 0 0 0 0 0 0 0 0 0 0 0 0 0 0 0 0 0 0 0 0 0 0 0 0 0 0 0 0 0 0 0 0 0 0 0 0 0 0 0 0 0 0 0 0 0 0 0 0 0 0 0 0 0 0 0 0 0 0 0 0 0 0 0 0 0 0 0 0 0 0 0 0 0 0 0 0 0 0 0 0 0 0 0 0 0 0 0 0 0 0 0 0 0 0 0 0 0 0 0 0 0 0 0 0 0 0 0 0 0 0 0 0 0 0 0 0 0 0 0 0 0 0 0 0 0 0 0 0 0 0 0 0 0 0 0 0 0 0 0 0 0 0 0 0 0 0 0 0 0 0 0 0 0 0 0 0 0 0 0 0 0 0 0 0 0 0 0 0 0 0 0 0 0 0 0 0 0 0 0 0 0 0 0 0 0 0 0 0 0 0 0 0 0 0 0 0 0 0 0 0 0 0 0 0 0 0 0 0 0 0 0 0 0 0 0 0 0 0 0 0 0 0 0 0 0 0 0 0 0 0 0 0 0 0 0 0 
</DataArray>
<DataArray Name="Strain_23" format="ascii" type="Float64">
0 0 0 0 0 0 0 0 0 0 0 0 0 0 0 0 0 0 0 0 0 0 0 0 0 0 0 0 0 0 0 0 0 0 0 0 0 0 0 0 0 0 0 0 0 0 0 0 0 0 0 0 0 0 0 0 0 0 0 0 0 0 0 0 0 0 0 0 0 0 0 0 0 0 0 0 0 0 0 0 0 0 0 0 0 0 0 0 0 0 0 0 0 0 0 0 0 0 0 0 0 0 0 0 0 0 0 0 0 0 0 0 0 0 0 0 0 0 0 0 0 0 0 0 0 0 0 0 0 0 0 0 0 0 0 0 0 0 0 0 0 0 0 0 0 0 0 0 0 0 0 0 0 0 0 0 0 0 0 0 0 0 0 0 0 0 0 0 0 0 0 0 0 0 0 0 0 0 0 0 0 0 0 0 0 0 0 0 0 0 0 0 0 0 0 0 0 0 0 0 0 0 0 0 0 0 0 0 0 0 0 0 0 0 0 0 0 0 0 0 0 0 0 0 0 0 0 0 0 0 0 0 0 0 0 0 0 0 0 0 0 0 0 0 0 0 0 0 0 0 0 0 0 0 0 0 0 0 0 0 0 0 0 0 0 0 0 0 0 0 0 0 0 0 0 0 0 0 0 0 0 0 0 0 0 0 0 0 
</DataArray>
<DataArray Name="Strain_33" format="ascii" type="Float64">
0.0915682 0.0911763 0.090394 0.0892242 0.0876725 0.0857455 0.0834513 0.0807995 0.0778018 0.074471 0.0708215 0.0668688 0.0948982 0.094492 0.093681 0.0924687 0.0908608 0.0888635 0.0864858 0.0837377 0.080631 0.077179 0.0733968 0.0693003 0.0982283 0.0978075 0.096968 0.0957135 0.094049 0.0919815 0.0895202 0.086676 0.0834602 0.079887 0.075972 0.0717317 0.0626292 0.0581217 0.0533652 0.0483802 0.0431882 0.0378112 0.0322725 0.0265952 0.020804 0.0149237 0.00897975 0.0029975 0.0649067 0.0602352 0.0553058 0.0501395 0.0447587 0.0391862 0.0334457 0.027562 0.0215605 0.0154668 0.0093065 0.0031065 0.0671843 0.0623487 0.0572462 0.0518988 0.0463293 0.0405613 0.0346192 0.0285292 0.0223173 0.0160097 0.00963325 0.0032155 -0.0029975 -0.00897975 -0.0149237 -0.020804 -0.0265952 -0.0322725 -0.0378112 -0.0431882 -0.0483802 -0.0533653 -0.0581217 -0.0626292 -0.0031065 -0.0093065 -0.0154668 -0.0215605 -0.027562 -0.0334457 -0.0391862 -0.0447587 -0.0501395 -0.0553058 -0.0602353 -0.0649067 -0.0032155 -0.00963325 -0.0160097 -0.0223173 -0.0285293 -0.0346192 -0.0405612 -0.0463293 -0.0518988 -0.0572462 -0.0623487 -0.0671843 -0.0668688 -0.0708215 -0.074471 -0.0778018 -0.0807995 -0.0834513 -0.0857455 -0.0876725 -0.0892242 -0.090394 -0.0911762 -0.0915682 -0.0693003 -0.0733967 -0.077179 -0.080631 -0.0837377 -0.0864858 -0.0888635 -0.0908607 -0.0924688 -0.093681 -0.094492 -0.0948983 -0.0717317 -0.075972 -0.079887 -0.0834602 -0.086676 -0.0895203 -0.0919815 -0.094049 -0.0957135 -0.096968 -0.0978075 -0.0982283 -0.0915682 -0.0911763 -0.090394 -0.0892242 -0.0876725 -0.0857455 -0.0834513 -0.0807995 -0.0778018 -0.074471 -0.0708215 -0.0668688 -0.0948982 -0.094492 -0.093681 -0.0924687 -0.0908608 -0.0888635 -0.0864858 -0.0837377 -0.080631 -0.077179 -0.0733968 -0.0693003 -0.0982283 -0.0978075 -0.096968 -0.0957135 -0.094049 -0.0919815 -0.0895202 -0.086676 -0.0834602 -0.079887 -0.075972 -0.0717317 -0.0626292 -0.0581217 -0.0533652 -0.0483802 -0.0431882 -0.0378112 -0.0322725 -0.0265952 -0.020804 -0.0149237 -0.00897975 -0.0029975 -0.0649067 -0.0602352 -0.0553058 -0.0501395 -0.0447587 -0.0391862 -0.0334457 -0.027562 -0.0215605 -0.0154668 -0.0093065 -0.0031065 -0.0671843 -0.0623487 -0.0572462 -0.0518988 -0.0463293 -0.0405613 -0.0346192 -0.0285292 -0.0223173 -0.0160097 -0.00963325 -0.0032155 0.0029975 0.00897975 0.0149237 0.020804 0.0265952 0.0322725 0.0378112 0.0431882 0.0483802 0.0533653 0.0581217 0.0626292 0.0031065 0.0093065 0.0154668 0.0215605 0.027562 0.0334457 0.0391862 0.0447587 0.0501395 0.0553058 0.0602353 0.0649067 0.0032155 0.00963325 0.0160097 0.0223173 0.0285293 0.0346192 0.0405612 0.0463293 0.0518988 0.0572462 0.0623487 0.0671843 0.0668688 0.0708215 0.074471 0.0778018 0.0807995 0.0834513 0.0857455 0.0876725 0.0892242 0.090394 0.0911762 0.0915682 0.0693003 0.0733967 0.077179 0.080631 0.0837377 0.0864858 0.0888635 0.0908607 0.0924688 0.093681 0.094492 0.0948983 0.0717317 0.075972 0.079887 0.0834602 0.086676 0.0895203 0.0919815 0.094049 0.0957135 0.096968 0.0978075 0.0982283 
</DataArray>
<DataArray Name="Stress_11" format="ascii" type="Float64">
-1870.25 -1862.57 -1846.49 -1822.46 -1790.59 -1751.04 -1703.96 -1649.56 -1588.1 -1519.85 -1445.1 -1364.2 -1933.09 -1924.62 -1908.07 -1883.4 -1850.67 -1810 -1761.59 -1705.63 -1642.37 -1572.08 -1495.05 -1411.63 -1995.62 -1986.97 -1970.04 -1944.68 -1911.03 -1869.21 -1819.42 -1761.85 -1696.74 -1624.35 -1545.01 -1459.03 -1277.46 -1185.3 -1088.1 -986.287 -880.3 -770.577 -657.622 -541.864 -423.838 -304.012 -182.922 -61.0586 -1322.16 -1227.01 -1126.62 -1021.38 -911.787 -798.282 -681.336 -561.487 -439.23 -315.087 -189.589 -63.2872 -1366.77 -1268.61 -1164.98 -1056.33 -943.114 -825.803 -704.921 -580.968 -454.507 -326.084 -196.206 -65.4966 61.0586 182.922 304.012 423.838 541.864 657.622 770.577 880.3 986.287 1088.1 1185.3 1277.46 63.2872 189.589 315.087 439.23 561.487 681.336 798.282 911.787 1021.38 1126.62 1227.01 1322.16 65.4966 196.206 326.084 454.507 580.968 704.921 825.803 943.114 1056.33 1164.98 1268.61 1366.77 1364.2 1445.1 1519.85 1588.1 1649.56 1703.96 1751.04 1790.59 1822.46 1846.49 1862.57 1870.25 1411.63 1495.05 1572.08 1642.37 1705.63 1761.59 1810 1850.67 1883.4 1908.07 1924.62 1933.09 1459.03 1545.01 1624.35 1696.74 1761.85 1819.42 1869.21 1911.03 1944.68 1970.04 1986.97 1995.62 18.5954 18.5132 18.3555 18.1192 17.8057 17.4162 16.9524 16.416 15.8094 15.1351 14.3959 13.5948 19.3264 19.2459 19.0806 18.8333 18.5055 18.0983 17.6137 17.0536 16.4204 15.717 14.9462 14.1116 20.0604 19.9746 19.8018 19.5442 19.2024 18.778 18.273 17.6897 17.0304 16.2983 15.4966 14.6288 12.7352 11.8207 10.8552 9.84284 8.78792 7.69481 6.56858 5.41355 4.23518 3.03825 1.82827 0.610298 13.2165 12.2648 11.2608 10.2085 9.11278 7.97806 6.80906 5.61118 4.38931 3.14867 1.89454 0.632418 13.6987 12.7103 11.6678 10.576 9.43943 8.26285 7.05148 5.81024 4.54466 3.26008 1.96142 0.65472 -0.610298 -1.82827 -3.03825 -4.23518 -5.41355 -6.56858 -7.69481 -8.78792 -9.84284 -10.8552 -11.8207 -12.7352 -0.632418 -1.89454 -3.14867 -4.38931 -5.61118 -6.80906 -7.97806 -9.11278 -10.2085 -11.2608 -12.2648 -13.2165 -0.65472 -1.96142 -3.26008 -4.54466 -5.81024 -7.05148 -8.26285 -9.43943 -10.576 -11.6678 -12.7103 -13.6987 -13.5948 -14.3959 -15.1351 -15.8094 -16.416 -16.9524 -17.4162 -17.8057 -18.1192 -18.3555 -18.5132 -18.5954 -14.1116 -14.9462 -15.717 -16.4204 -17.0536 -17.6137 -18.0983 -18.5055 -18.8333 -19.0806 -19.2459 -19.3264 -14.6288 -15.4966 -16.2983 -17.0304 -17.6897 -18.273 -18.778 -19.2024 -19.5442 -19.8018 -19.9746 -20.0604 
</DataArray>
<DataArray Name="Stress_22" format="ascii" type="Float64">
-1865.06 -1857.27 -1841.3 -1817.65 -1786.19 -1747.14 -1700.62 -1646.82 -1585.99 -1518.36 -1444.21 -1363.86 -1933.14 -1924.59 -1908.21 -1883.5 -1850.73 -1810.03 -1761.58 -1705.6 -1642.29 -1571.96 -1494.91 -1411.45 -2000.83 -1991.89 -1974.96 -1949.21 -1915.16 -1872.87 -1822.53 -1764.38 -1698.67 -1625.68 -1545.75 -1459.23 -1277.63 -1185.9 -1089.05 -987.489 -881.664 -772.007 -659.011 -543.141 -424.91 -304.829 -183.429 -61.2316 -1321.95 -1226.79 -1126.38 -1021.15 -911.548 -798.054 -681.138 -561.305 -439.083 -314.981 -189.526 -63.2641 -1366.49 -1267.92 -1163.96 -1055.06 -941.702 -824.342 -703.495 -579.68 -453.421 -325.252 -195.695 -65.3211 61.2316 183.429 304.829 424.91 543.141 659.011 772.007 881.664 987.489 1089.05 1185.9 1277.63 63.2641 189.526 314.981 439.083 561.305 681.138 798.054 911.548 1021.15 1126.38 1226.79 1321.95 65.3211 195.695 325.252 453.421 579.68 703.495 824.342 941.702 1055.06 1163.96 1267.92 1366.49 1363.86 1444.21 1518.36 1585.99 1646.82 1700.62 1747.14 1786.19 1817.65 1841.3 1857.27 1865.06 1411.45 1494.91 1571.96 1642.29 1705.6 1761.58 1810.03 1850.73 1883.5 1908.21 1924.59 1933.14 1459.23 1545.75 1625.68 1698.67 1764.38 1822.53 1872.87 1915.16 1949.21 1974.96 1991.89 2000.83 18.6356 18.5699 18.4075 18.1683 17.8507 17.4565 16.9873 16.4451 15.8326 15.1523 14.4072 13.6007 19.3284 19.2436 19.0775 18.8311 18.504 18.0976 17.6137 17.0546 16.4223 15.7197 14.9498 14.1159 20.0189 19.9182 19.7495 19.4955 19.1583 18.7395 18.2406 17.6638 17.0114 16.2861 15.4909 14.6292 12.7361 11.8174 10.8484 9.83342 8.77681 7.68295 6.55672 5.40268 4.22585 3.03118 1.82382 0.608793 13.2214 12.2702 11.2664 10.2143 9.11839 7.98339 6.81403 5.6154 4.39277 3.15126 1.89616 0.632943 13.7045 12.7206 11.6818 10.5925 9.45744 8.28125 7.06908 5.82623 4.55808 3.27011 1.96772 0.656838 -0.608793 -1.82382 -3.03118 -4.22585 -5.40268 -6.55672 -7.68295 -8.77681 -9.83342 -10.8484 -11.8174 -12.7361 -0.632943 -1.89616 -3.15126 -4.39277 -5.6154 -6.81403 -7.98339 -9.11839 -10.2143 -11.2664 -12.2702 -13.2214 -0.656838 -1.96772 -3.27011 -4.55808 -5.82623 -7.06908 -8.28125 -9.45744 -10.5925 -11.6818 -12.7206 -13.7045 -13.6007 -14.4072 -15.1523 -15.8326 -16.4451 -16.9873 -17.4565 -17.8507 -18.1683 -18.4075 -18.5699 -18.6356 -14.1159 -14.9498 -15.7197 -16.4223 -17.0546 -17.6137 -18.0976 -18.504 -18.8311 -19.0775 -19.2436 -19.3284 -14.6292 -15.4909 -16.2861 -17.0114 -17.6638 -18.2406 -18.7395 -19.1583 -19.4955 -19.7495 -19.9182 -20.0189 
</DataArray>
<DataArray Name="Stress_12" format="ascii" type="Float64">