<?xml version="1.0"?>
<VTKFile byte_order="LittleEndian" type="UnstructuredGrid" version="0.1">
<UnstructuredGrid>
<Piece NumberOfCells="288" NumberOfPoints="384">
<PointData>
<DataArray Name="Warping_X" format="ascii" type="Float64">
-0 -0 0 0 0 0 0 0 0 0 0 0 0 0 -0 0 0 0 0 0 0 0 0 0 0 0 0 0 0 0 0 0 0 0 0 0 0 0 0 0 0 0 0 0 0 0 0 0 0 0 0 0 0 0 0 0 0 0 0 0 0 0 0 0 0 0 0 0 0 0 0 0 0 0 0 0 -0 0 0 0 0 0 0 0 0 0 0 0 0 0 0 0 0 0 0 0 0 0 0 0 -0 0 0 0 0 0 0 0 0 0 0 0 0 0 0 0 0 0 0 0 0 0 0 0 0 0 0 0 0 0 0 0 0 0 0 0 0 0 0 0 0 0 0 0 0 0 0 0 0 0 0 0 0 0 0 0 0 0 0 0 0 0 0 0 0 0 0 0 0 0 0 0 0 0 0 0 0 0 0 0 0 0 0 0 0 0 0 0 0 0 0 0 0 0 0 0 -0 -0 0 0 0 0 0 0 0 0 0 0 0 0 0 0 0 0 0 0 0 0 0 0 0 0 0 0 0 0 0 0 0 0 0 0 0 0 0 0 0 0 0 0 0 0 0 0 0 0 0 0 0 0 0 0 0 0 0 0 0 0 0 0 0 0 0 0 0 0 0 0 0 0 0 0 0 0 0 0 0 0 0 0 0 0 0 0 0 0 0 0 0 0 0 0 -0 0 0 0 0 0 0 0 0 0 0 0 0 0 0 0 0 0 0 0 0 0 0 0 0 0 0 0 0 0 0 0 0 0 0 0 0 0 0 0 0 0 0 0 0 0 0 0 0 0 0 0 0 0 0 0 0 0 0 0 0 0 0 0 0 0 0 0 0 0 0 0 0 0 0 0 0 0 0 0 0 0 0 0 0 0 0 0 0 0 0 0 
</DataArray>
<DataArray Name="Warping_Y" format="ascii" type="Float64">
0 -0 0 0 0 0 0 0 0 0 0 0 0 0 -0 0 0 0 0 0 0 0 0 0 0 0 0 0 0 0 0 0 0 0 0 0 0 0 0 0 0 0 0 0 0 0 0 0 0 0 0 0 -0 0 0 0 0 0 0 0 0 0 0 0 -0 0 0 0 0 0 0 0 0 0 0 0 0 0 0 0 0 0 0 0 0 0 0 0 0 0 0 0 0 0 0 0 0 0 0 0 -0 0 0 0 0 0 0 0 0 0 0 0 0 0 0 0 0 0 0 0 0 0 0 0 0 0 0 0 0 0 0 0 0 0 0 0 0 0 0 0 0 0 0 0 0 0 0 0 0 0 0 0 0 0 0 0 0 0 0 0 0 0 0 0 0 0 0 0 0 0 0 0 0 0 0 0 0 0 0 0 0 0 0 0 0 0 0 0 0 0 0 0 0 0 0 0 -0 0 0 0 0 0 0 0 0 0 0 0 0 0 0 0 0 0 0 0 0 0 0 0 0 0 0 0 0 0 0 0 0 0 0 0 0 0 0 0 0 0 0 0 0 0 0 0 -0 0 0 0 0 0 0 0 0 0 0 0 0 0 0 0 0 0 0 0 0 0 0 0 0 0 0 0 0 0 0 0 0 0 0 0 0 0 0 0 0 0 0 0 0 0 0 0 -0 0 0 0 0 0 0 0 0 0 0 0 0 0 0 0 0 0 0 0 0 0 0 0 0 0 0 0 0 0 0 0 0 0 0 0 0 0 0 0 0 0 0 0 0 0 0 0 0 0 0 0 0 0 0 0 0 0 0 0 0 0 0 0 0 0 0 0 0 0 0 0 0 0 0 0 0 0 0 0 0 0 0 0 0 0 0 0 0 0 0 0 
</DataArray>
<DataArray Name="Warping_Z" format="ascii" type="Float64">
0 0 0 0 0 0 0 0 0 0 0 0 0 0 0 0 0 0 0 0 0 0 0 0 0 0 0 0 0 0 0 0 0 0 0 0 0 0 0 0 0 0 0 0 0 0 0 0 0 0 0 0 0 0 0 0 0 0 0 0 0 0 0 0 0 0 0 0 0 0 0 0 0 0 0 0 0 0 0 0 0 0 0 0 0 0 0 0 0 0 0 0 0 0 0 0 0 0 0 0 0 0 0 0 0 0 0 0 0 0 0 0 0 0 0 0 0 0 0 0 0 0 0 0 0 0 0 0 0 0 0 0 0 0 0 0 0 0 0 0 0 0 0 0 0 0 0 0 0 0 0 0 0 0 0 0 0 0 0 0 0 0 0 0 0 0 0 0 0 0 0 0 0 0 0 0 0 0 0 0 0 0 0 0 0 0 0 0 0 0 0 0 0 0 0 0 0 0 0 0 0 0 0 0 0 0 0 0 0 0 0 0 0 0 0 0 0 0 0 0 0 0 0 0 0 0 0 0 0 0 0 0 0 0 0 0 0 0 0 0 0 0 0 0 0 0 0 0 0 0 0 0 0 0 0 0 0 0 0 0 0 0 0 0 0 0 0 0 0 0 0 0 0 0 0 0 0 0 0 0 0 0 0 0 0 0 0 0 0 0 0 0 0 0 0 0 0 0 0 0 0 0 0 0 0 0 0 0 0 0 0 0 0 0 0 0 0 0 0 0 0 0 0 0 0 0 0 0 0 0 0 0 0 0 0 0 0 0 0 0 0 0 0 0 0 0 0 0 0 0 0 0 0 0 0 0 0 0 0 0 0 0 0 0 0 0 0 0 0 0 0 0 0 0 0 0 0 0 0 0 0 0 0 0 
</DataArray>
</PointData>
<CellData>
<DataArray Name="MaterialId" format="ascii" type="Float64">
1 1 1 1 1 1 1 1 1 1 1 1 1 1 1 1 1 1 1 1 1 1 1 1 1 1 1 1 1 1 1 1 1 1 1 1 1 1 1 1 1 1 1 1 1 1 1 1 1 1 1 1 1 1 1 1 1 1 1 1 1 1 1 1 1 1 1 1 1 1 1 1 1 1 1 1 1 1 1 1 1 1 1 1 1 1 1 1 1 1 1 1 1 1 1 1 1 1 1 1 1 1 1 1 1 1 1 1 1 1 1 1 1 1 1 1 1 1 1 1 1 1 1 1 1 1 1 1 1 1 1 1 1 1 1 1 1 1 1 1 1 1 1 1 2 2 2 2 2 2 2 2 2 2 2 2 2 2 2 2 2 2 2 2 2 2 2 2 2 2 2 2 2 2 2 2 2 2 2 2 2 2 2 2 2 2 2 2 2 2 2 2 2 2 2 2 2 2 2 2 2 2 2 2 2 2 2 2 2 2 2 2 2 2 2 2 2 2 2 2 2 2 2 2 2 2 2 2 2 2 2 2 2 2 2 2 2 2 2 2 2 2 2 2 2 2 2 2 2 2 2 2 2 2 2 2 2 2 2 2 2 2 2 2 2 2 2 2 2 2 2 2 2 2 2 2 2 2 2 2 2 2 2 2 2 2 2 2 
</DataArray>
<DataArray Name="FiberAngle" format="ascii" type="Float64">
0 0 0 0 0 0 0 0 0 0 0 0 0 0 0 0 0 0 0 0 0 0 0 0 0 0 0 0 0 0 0 0 0 0 0 0 0 0 0 0 0 0 0 0 0 0 0 0 0 0 0 0 0 0 0 0 0 0 0 0 0 0 0 0 0 0 0 0 0 0 0 0 0 0 0 0 0 0 0 0 0 0 0 0 0 0 0 0 0 0 0 0 0 0 0 0 0 0 0 0 0 0 0 0 0 0 0 0 0 0 0 0 0 0 0 0 0 0 0 0 0 0 0 0 0 0 0 0 0 0 0 0 0 0 0 0 0 0 0 0 0 0 0 0 0 0 0 0 0 0 0 0 0 0 0 0 0 0 0 0 0 0 0 0 0 0 0 0 0 0 0 0 0 0 0 0 0 0 0 0 0 0 0 0 0 0 0 0 0 0 0 0 0 0 0 0 0 0 0 0 0 0 0 0 0 0 0 0 0 0 0 0 0 0 0 0 0 0 0 0 0 0 0 0 0 0 0 0 0 0 0 0 0 0 0 0 0 0 0 0 0 0 0 0 0 0 0 0 0 0 0 0 0 0 0 0 0 0 0 0 0 0 0 0 0 0 0 0 0 0 0 0 0 0 0 0 0 0 0 0 0 0 0 0 0 0 0 0 
</DataArray>
<DataArray Name="Strain_11" format="ascii" type="Float64">
0 0 0 0 0 0 0 0 0 0 0 0 0 0 0 0 0 0 0 0 0 0 0 0 0 0 0 0 0 0 0 0 0 0 0 0 0 0 0 0 0 0 0 0 0 0 0 0 0 0 0 0 0 0 0 0 0 0 0 0 0 0 0 0 0 0 0 0 0 0 0 0 0 0 0 0 0 0 0 0 0 0 0 0 0 0 0 0 0 0 0 0 0 0 0 0 0 0 0 0 0 0 0 0 0 0 0 0 0 0 0 0 0 0 0 0 0 0 0 0 0 0 0 0 0 0 0 0 0 0 0 0 0 0 0 0 0 0 0 0 0 0 0 0 0 0 0 0 0 0 0 0 0 0 0 0 0 0 0 0 0 0 0 0 0 0 0 0 0 0 0 0 0 0 0 0 0 0 0 0 0 0 0 0 0 0 0 0 0 0 0 0 0 0 0 0 0 0 0 0 0 0 0 0 0 0 0 0 0 0 0 0 0 0 0 0 0 0 0 0 0 0 0 0 0 0 0 0 0 0 0 0 0 0 0 0 0 0 0 0 0 0 0 0 0 0 0 0 0 0 0 0 0 0 0 0 0 0 0 0 0 0 0 0 0 0 0 0 0 0 0 0 0 0 0 0 0 0 0 0 0 0 0 0 0 0 0 0 
</DataArray>
<DataArray Name="Strain_22" format="ascii" type="Float64">
0 0 0 0 0 0 0 0 0 0 0 0 0 0 0 0 0 0 0 0 0 0 0 0 0 0 0 0 0 0 0 0 0 0 0 0 0 0 0 0 0 0 0 0 0 0 0 0 0 0 0 0 0 0 0 0 0 0 0 0 0 0 0 0 0 0 0 0 0 0 0 0 0 0 0 0 0 0 0 0 0 0 0 0 0 0 0 0 0 0 0 0 0 0 0 0 0 0 0 0 0 0 0 0 0 0 0 0 0 0 0 0 0 0 0 0 0 0 0 0 0 0 0 0 0 0 0 0 0 0 0 0 0 0 0 0 0 0 0 0 0 0 0 0 0 0 0 0 0 0 0 0 0 0 0 0 0 0 0 0 0 0 0 0 0 0 0 0 0 0 0 0 0 0 0 0 0 0 0 0 0 0 0 0 0 0 0 0 0 0 0 0 0 0 0 0 0 0 0 0 0 0 0 0 0 0 0 0 0 0 0 0 0 0 0 0 0 0 0 0 0 0 0 0 0 0 0 0 0 0 0 0 0 0 0 0 0 0 0 0 0 0 0 0 0 0 0 0 0 0 0 0 0 0 0 0 0 0 0 0 0 0 0 0 0 0 0 0 0 0 0 0 0 0 0 0 0 0 0 0 0 0 0 0 0 0 0 0 
</DataArray>
<DataArray Name="Strain_12" format="ascii" type="Float64">
0 0 0 0 0 0 0 0 0 0 0 0 0 0 0 0 0 0 0 0 0 0 0 0 0 0 0 0 0 0 0 0 0 0 0 0 0 0 0 0 0 0 0 0 0 0 0 0 0 0 0 0 0 0 0 0 0 0 0 0 0 0 0 0 0 0 0 0 0 0 0 0 0 0 0 0 0 0 0 0 0 0 0 0 0 0 0 0 0 0 0 0 0 0 0 0 0 0 0 0 0 0 0 0 0 0 0 0 0 0 0 0 0 0 0 0 0 0 0 0 0 0 0 0 0 0 0 0 0 0 0 0 0 0 0 0 0 0 0 0 0 0 0 0 0 0 0 0 0 0 0 0 0 0 0 0 0 0 0 0 0 0 0 0 0 0 0 0 0 0 0 0 0 0 0 0 0 0 0 0 0 0 0 0 0 0 0 0 0 0 0 0 0 0 0 0 0 0 0 0 0 0 0 0 0 0 0 0 0 0 0 0 0 0 0 0 0 0 0 0 0 0 0 0 0 0 0 0 0 0 0 0 0 0 0 0 0 0 0 0 0 0 0 0 0 0 0 0 0 0 0 0 0 0 0 0 0 0 0 0 0 0 0 0 0 0 0 0 0 0 0 0 0 0 0 0 0 0 0 0 0 0 0 0 0 0 0 0 
</DataArray>
<DataArray Name="Strain_13" format="ascii" type="Float64">
229.051 235.143 234.575 232.589 229.534 225.435 220.303 214.148 206.989 198.852 189.762 179.757 227.272 227.295 226.383 224.447 221.501 217.549 212.599 206.663 199.756 191.904 183.135 173.481 225.686 220.009 218.757 216.872 214.029 210.218 205.44 199.708 193.041 185.457 176.985 167.66 168.877 157.17 144.685 131.485 117.629 103.177 88.2079 72.7889 57.0033 40.9237 24.638 8.22705 162.983 151.685 139.639 126.898 113.525 99.5812 85.1305 70.2517 55.0163 39.4989 23.7796 7.94017 157.519 146.604 134.961 122.65 109.727 96.2484 82.2851 67.9026 53.1772 38.1817 22.9852 7.67475 -8.22705 -24.638 -40.9237 -57.0033 -72.7889 -88.2079 -103.177 -117.629 -131.485 -144.685 -157.17 -168.877 -7.94017 -23.7796 -39.4989 -55.0163 -70.2517 -85.1305 -99.5812 -113.525 -126.898 -139.639 -151.685 -162.983 -7.67475 -22.9852 -38.1817 -53.1772 -67.9026 -82.2851 -96.2484 -109.727 -122.65 -134.961 -146.604 -157.519 -179.757 -189.762 -198.852 -206.989 -214.148 -220.303 -225.435 -229.534 -232.589 -234.575 -235.143 -229.051 -173.481 -183.135 -191.904 -199.756 -206.663 -212.599 -217.549 -221.501 -224.447 -226.383 -227.295 -227.272 -167.66 -176.985 -185.457 -193.041 -199.708 -205.44 -210.218 -214.029 -216.872 -218.757 -220.009 -225.686 229.057 235.142 234.594 232.583 229.536 225.453 220.321 214.148 206.962 198.868 189.785 179.763 227.264 227.296 226.384 224.434 221.494 217.558 212.612 206.659 199.741 191.913 183.155 173.487 225.66 220.011 218.756 216.835 214.012 210.221 205.458 199.704 193.014 185.469 177.014 167.664 168.879 157.171 144.667 131.469 117.645 103.184 88.2079 72.7807 56.9995 40.9143 24.6269 8.22981 162.979 151.684 139.638 126.894 113.526 99.5885 85.1388 70.2547 55.0088 39.4866 23.7755 7.94215 157.502 146.6 134.982 122.65 109.715 96.2563 82.303 67.9188 53.1645 38.1599 22.9888 7.68347 -8.22981 -24.6269 -40.9143 -56.9995 -72.7807 -88.2079 -103.184 -117.645 -131.469 -144.667 -157.171 -168.879 -7.94215 -23.7755 -39.4866 -55.0088 -70.2547 -85.1388 -99.5885 -113.526 -126.894 -139.638 -151.684 -162.979 -7.68347 -22.9888 -38.1599 -53.1645 -67.9188 -82.303 -96.2563 -109.715 -122.65 -134.982 -146.6 -157.502 -179.763 -189.785 -198.868 -206.962 -214.148 -220.321 -225.453 -229.536 -232.583 -234.594 -235.142 -229.057 -173.487 -183.155 -191.913 -199.741 -206.659 -212.612 -217.558 -221.494 -224.434 -226.384 -227.296 -227.264 -167.664 -177.014 -185.469 -193.014 -199.704 -205.458 -210.221 -214.012 -216.835 -218.756 -220.011 -225.66 
</DataArray>
<DataArray Name="Strain_23" format="ascii" type="Float64">
-290.135 -279.206 -263.883 -248.407 -233.011 -217.79 -202.821 -188.172 -173.924 -160.146 -146.905 -134.278 -286.57 -279.596 -265.211 -250.273 -235.422 -220.734 -206.283 -192.148 -178.396 -165.095 -152.317 -140.129 -290.783 -280.791 -266.488 -252.076 -237.717 -223.521 -209.558 -195.893 -182.601 -169.746 -157.391 -145.609 -122.329 -111.126 -100.727 -91.1944 -82.5753 -74.9212 -68.2781 -62.6816 -58.1657 -54.7543 -52.4712 -51.3247 -128.597 -117.782 -107.745 -98.5419 -90.2221 -82.8353 -76.4215 -71.0191 -66.6593 -63.3681 -61.1636 -60.0569 -134.461 -124.006 -114.301 -105.402 -97.3595 -90.2159 -84.0142 -78.7912 -74.5754 -71.3928 -69.2604 -68.1909 -51.3247 -52.4712 -54.7543 -58.1657 -62.6816 -68.2781 -74.9212 -82.5753 -91.1944 -100.727 -111.126 -122.329 -60.0569 -61.1636 -63.3681 -66.6593 -71.0191 -76.4215 -82.8353 -90.2221 -98.5419 -107.745 -117.782 -128.597 -68.1909 -69.2604 -71.3928 -74.5754 -78.7912 -84.0142 -90.2159 -97.3595 -105.402 -114.301 -124.006 -134.461 -134.278 -146.905 -160.146 -173.924 -188.172 -202.821 -217.79 -233.011 -248.407 -263.883 -279.206 -290.135 -140.129 -152.317 -165.095 -178.396 -192.148 -206.283 -220.734 -235.422 -250.273 -265.211 -279.596 -286.57 -145.609 -157.391 -169.746 -182.601 -195.893 -209.558 -223.521 -237.717 -252.076 -266.488 -280.791 -290.783 -290.132 -279.216 -263.89 -248.408 -233.016 -217.786 -202.81 -188.152 -173.938 -160.162 -146.903 -134.276 -286.569 -279.601 -265.225 -250.282 -235.42 -220.727 -206.277 -192.148 -178.402 -165.097 -152.32 -140.134 -290.775 -280.79 -266.513 -252.093 -237.705 -223.508 -209.555 -195.909 -182.606 -169.728 -157.397 -145.627 -122.324 -111.105 -100.715 -91.2269 -82.5832 -74.9129 -68.2712 -62.6925 -58.1858 -54.7515 -52.49 -51.3372 -128.591 -117.762 -107.737 -98.5576 -90.2258 -82.8219 -76.4126 -71.0264 -66.6729 -63.3662 -61.1623 -60.0647 -134.457 -123.976 -114.286 -105.424 -97.3561 -90.189 -84.0004 -78.7955 -74.5985 -71.3778 -69.2398 -68.1973 -51.3372 -52.49 -54.7515 -58.1858 -62.6925 -68.2712 -74.9129 -82.5832 -91.2269 -100.715 -111.105 -122.324 -60.0647 -61.1623 -63.3662 -66.6729 -71.0264 -76.4126 -82.8219 -90.2258 -98.5576 -107.737 -117.762 -128.591 -68.1973 -69.2398 -71.3778 -74.5985 -78.7955 -84.0004 -90.189 -97.3561 -105.424 -114.286 -123.976 -134.457 -134.276 -146.903 -160.162 -173.938 -188.152 -202.81 -217.786 -233.016 -248.408 -263.89 -279.216 -290.132 -140.134 -152.32 -165.097 -178.402 -192.148 -206.277 -220.727 -235.42 -250.282 -265.225 -279.601 -286.569 -145.627 -157.397 -169.728 -182.606 -195.909 -209.555 -223.508 -237.705 -252.093 -266.513 -280.79 -290.775 
</DataArray>
<DataArray Name="Strain_33" format="ascii" type="Float64">
0 0 0 0 0 0 0 0 0 0 0 0 0 0 0 0 0 0 0 0 0 0 0 0 0 0 0 0 0 0 0 0 0 0 0 0 0 0 0 0 0 0 0 0 0 0 0 0 0 0 0 0 0 0 0 0 0 0 0 0 0 0 0 0 0 0 0 0 0 0 0 0 0 0 0 0 0 0 0 0 0 0 0 0 0 0 0 0 0 0 0 0 0 0 0 0 0 0 0 0 0 0 0 0 0 0 0 0 0 0 0 0 0 0 0 0 0 0 0 0 0 0 0 0 0 0 0 0 0 0 0 0 0 0 0 0 0 0 0 0 0 0 0 0 0 0 0 0 0 0 0 0 0 0 0 0 0 0 0 0 0 0 0 0 0 0 0 0 0 0 0 0 0 0 0 0 0 0 0 0 0 0 0 0 0 0 0 0 0 0 0 0 0 0 0 0 0 0 0 0 0 0 0 0 0 0 0 0 0 0 0 0 0 0 0 0 0 0 0 0 0 0 0 0 0 0 0 0 0 0 0 0 0 0 0 0 0 0 0 0 0 0 0 0 0 0 0 0 0 0 0 0 0 0 0 0 0 0 0 0 0 0 0 0 0 0 0 0 0 0 0 0 0 0 0 0 0 0 0 0 0 0 0 0 0 0 0 0 
</DataArray>
<DataArray Name="Stress_11" format="ascii" type="Float64">
0 0 0 0 0 0 0 0 0 0 0 0 0 0 0 0 0 0 0 0 0 0 0 0 0 0 0 0 0 0 0 0 0 0 0 0 0 0 0 0 0 0 0 0 0 0 0 0 0 0 0 0 0 0 0 0 0 0 0 0 0 0 0 0 0 0 0 0 0 0 0 0 0 0 0 0 0 0 0 0 0 0 0 0 0 0 0 0 0 0 0 0 0 0 0 0 0 0 0 0 0 0 0 0 0 0 0 0 0 0 0 0 0 0 0 0 0 0 0 0 0 0 0 0 0 0 0 0 0 0 0 0 0 0 0 0 0 0 0 0 0 0 0 0 0 0 0 0 0 0 0 0 0 0 0 0 0 0 0 0 0 0 0 0 0 0 0 0 0 0 0 0 0 0 0 0 0 0 0 0 0 0 0 0 0 0 0 0 0 0 0 0 0 0 0 0 0 0 0 0 0 0 0 0 0 0 0 0 0 0 0 0 0 0 0 0 0 0 0 0 0 0 0 0 0 0 0 0 0 0 0 0 0 0 0 0 0 0 0 0 0 0 0 0 0 0 0 0 0 0 0 0 0 0 0 0 0 0 0 0 0 0 0 0 0 0 0 0 0 0 0 0 0 0 0 0 0 0 0 0 0 0 0 0 0 0 0 0 
</DataArray>
<DataArray Name="Stress_22" format="ascii" type="Float64">
0 0 0 0 0 0 0 0 0 0 0 0 0 0 0 0 0 0 0 0 0 0 0 0 0 0 0 0 0 0 0 0 0 0 0 0 0 0 0 0 0 0 0 0 0 0 0 0 0 0 0 0 0 0 0 0 0 0 0 0 0 0 0 0 0 0 0 0 0 0 0 0 0 0 0 0 0 0 0 0 0 0 0 0 0 0 0 0 0 0 0 0 0 0 0 0 0 0 0 0 0 0 0 0 0 0 0 0 0 0 0 0 0 0 0 0 0 0 0 0 0 0 0 0 0 0 0 0 0 0 0 0 0 0 0 0 0 0 0 0 0 0 0 0 0 0 0 0 0 0 0 0 0 0 0 0 0 0 0 0 0 0 0 0 0 0 0 0 0 0 0 0 0 0 0 0 0 0 0 0 0 0 0 0 0 0 0 0 0 0 0 0 0 0 0 0 0 0 0 0 0 0 0 0 0 0 0 0 0 0 0 0 0 0 0 0 0 0 0 0 0 0 0 0 0 0 0 0 0 0 0 0 0 0 0 0 0 0 0 0 0 0 0 0 0 0 0 0 0 0 0 0 0 0 0 0 0 0 0 0 0 0 0 0 0 0 0 0 0 0 0 0 0 0 0 0 0 0 0 0 0 0 0 0 0 0 0 0 
</DataArray>
<DataArray Name="Stress_12" format="ascii" type="Float64">
0 0 0 0 0 0 0 0 0 0 0 0 0 0 0 0 0 0 0 0 0 0 0 0 0 0 0 0 0 0 0 0 0 0 0 0 0 0 0 0 0 0 0 0 0 0 0 0 0 0 0 0 0 0 0 0 0 0 0 0 0 0 0 0 0 0 0 0 0 0 0 0 0 0 0 0 0 0 0 0 0 0 0 0 0 0 0 0 0 0 0 0 0 0 0 0 0 0 0 0 0 0 0 0 0 0 0 0 0 0 0 0 0 0 0 0 0 0 0 0 0 0 0 0 0 0 0 0 0 0 0 0 0 0 0 0 0 0 0 0 0 0 0 0 0 0 0 0 0 0 0 0 0 0 0 0 0 0 0 0 0 0 0 0 0 0 0 0 0 0 0 0 0 0 0 0 0 0 0 0 0 0 0 0 0 0 0 0 0 0 0 0 0 0 0 0 0 0 0 0 0 0 0 0 0 0 0 0 0 0 0 0 0 0 0 0 0 0 0 0 0 0 0 0 0 0 0 0 0 0 0 0 0 0 0 0 0 0 0 0 0 0 0 0 0 0 0 0 0 0 0 0 0 0 0 0 0 0 0 0 0 0 0 0 0 0 0 0 0 0 0 0 0 0 0 0 0 0 0 0 0 0 0 0 0 0 0 0 
</DataArray>
<DataArray Name="Stress_13" format="ascii" type="Float64">
9543.87 9797.7 9774.05 9691.27 9563.98 9393.21 9179.38 8922.9 8624.6 8285.57 7906.81 7489.94 9469.74 9470.71 9432.69 9352.04 9229.3 9064.62 8858.34 8611.01 8323.25 7996.08 7630.67 7228.43 9403.65 9167.1 9114.97 9036.41 8917.95 8759.14 8560.05 8321.23 8043.46 7727.45 7374.44 6985.91 7036.6 6548.82 6028.59 5478.57 4901.25 4299.06 3675.36 3032.9 2375.16 1705.17 1026.59 342.797 6791.02 6320.28 5818.35 5287.48 4730.23 4149.25 3547.13 2927.18 2292.36 1645.8 990.823 330.843 6563.34 6108.53 5623.43 5110.48 4571.98 4010.38 3428.57 2829.3 2215.73 1590.92 957.724 319.784 -342.797 -1026.59 -1705.17 -2375.16 -3032.9 -3675.36 -4299.06 -4901.25 -5478.57 -6028.59 -6548.82 -7036.6 -330.843 -990.823 -1645.8 -2292.36 -2927.18 -3547.13 -4149.25 -4730.23 -5287.48 -5818.35 -6320.28 -6791.02 -319.784 -957.724 -1590.92 -2215.73 -2829.3 -3428.57 -4010.38 -4571.98 -5110.48 -5623.43 -6108.53 -6563.34 -7489.94 -7906.81 -8285.57 -8624.6 -8922.9 -9179.38 -9393.21 -9563.98 -9691.27 -9774.05 -9797.7 -9543.87 -7228.43 -7630.67 -7996.08 -8323.25 -8611.01 -8858.34 -9064.62 -9229.3 -9352.04 -9432.69 -9470.71 -9469.74 -6985.91 -7374.44 -7727.45 -8043.46 -8321.23 -8560.05 -8759.14 -8917.95 -9036.41 -9114.97 -9167.1 -9403.65 95.4413 97.9766 97.7484 96.9104 95.6407 93.9397 91.8012 89.2289 86.2349 82.8622 79.0778 74.902 94.694 94.7075 94.3276 93.5147 92.2899 90.65 88.5892 86.1087 83.2262 79.9644 76.3153 72.287 94.0259 91.6722 91.1491 90.3485 89.1725 87.5926 85.6081 83.2109 80.4232 77.2794 73.7563 69.8605 70.3668 65.4884 60.2782 54.779 49.0191 42.9938 36.7536 30.3255 23.75 17.0478 10.2613 3.42911 67.9083 63.202 58.1832 52.8729 47.3028 41.4955 35.4748 29.273 22.9205 16.4529 9.90654 3.30926 65.6262 61.084 56.2428 51.1045 45.715 40.1071 34.2932 28.2997 22.152 15.9001 9.57874 3.20147 -3.42911 -10.2613 -17.0478 -23.75 -30.3255 -36.7536 -42.9938 -49.0191 -54.779 -60.2782 -65.4884 -70.3668 -3.30926 -9.90654 -16.4529 -22.9205 -29.273 -35.4748 -41.4955 -47.3028 -52.8729 -58.1832 -63.202 -67.9083 -3.20147 -9.57874 -15.9001 -22.152 -28.2997 -34.2932 -40.1071 -45.715 -51.1045 -56.2428 -61.084 -65.6262 -74.902 -79.0778 -82.8622 -86.2349 -89.2289 -91.8012 -93.9397 -95.6407 -96.9104 -97.7484 -97.9766 -95.4413 -72.287 -76.3153 -79.9644 -83.2262 -86.1087 -88.5892 -90.65 -92.2899 -93.5147 -94.3276 -94.7075 -94.694 -69.8605 -73.7563 -77.2794 -80.4232 -83.2109 -85.6081 -87.5926 -89.1725 -90.3485 -91.1491 -91.6722 -94.0259 
</DataArray>
<DataArray Name="Stress_23" format="ascii" type="Float64">
-12089 -11633.7 -10995.2 -10350.4 -9708.85 -9074.64 -8450.94 -7840.54 -7246.91 -6672.79 -6121.08 -5594.97 -11940.5 -11649.9 -11050.6 -10428.1 -9809.32 -9197.31 -8595.2 -8006.25 -7433.23 -6879.02 -6346.61 -5838.76 -12116.1 -11699.7 -11103.7 -10503.2 -9904.96 -9313.46 -8731.64 -8162.29 -7608.44 -7072.79 -6558.02 -6067.09 -5097.1 -4630.27 -4196.98 -3799.8 -3440.67 -3121.74 -2844.95 -2611.76 -2423.59 -2281.45 -2186.32 -2138.55 -5358.24 -4907.63 -4489.42 -4105.94 -3759.28 -3451.5 -3184.25 -2959.15 -2777.5 -2640.36 -2548.5 -2502.39 -5602.57 -5166.97 -4762.58 -4391.77 -4056.68 -3759.03 -3500.62 -3282.99 -3107.33 -2974.72 -2885.87 -2841.31 -2138.55 -2186.32 -2281.45 -2423.59 -2611.76 -2844.95 -3121.74 -3440.67 -3799.8 -4196.98 -4630.27 -5097.1 -2502.39 -2548.5 -2640.36 -2777.5 -2959.15 -3184.25 -3451.5 -3759.28 -4105.94 -4489.42 -4907.63 -5358.24 -2841.31 -2885.87 -2974.72 -3107.33 -3282.99 -3500.62 -3759.03 -4056.68 -4391.77 -4762.58 -5166.97 -5602.57 -5594.97 -6121.08 -6672.79 -7246.91 -7840.54 -8450.94 -9074.64 -9708.85 -10350.4 -10995.2 -11633.7 -12089 -5838.76 -6346.61 -6879.02 -7433.23 -8006.25 -8595.2 -9197.31 -9809.32 -10428.1 -11050.6 -11649.9 -11940.5 -6067.09 -6558.02 -7072.79 -7608.44 -8162.29 -8731.64 -9313.46 -9904.96 -10503.2 -11103.7 -11699.7 -12116.1 -120.889 -116.341 -109.955 -103.504 -97.0907 -90.745 -84.5048 -78.3975 -72.4746 -66.7347 -61.2101 -55.9489 -119.405 -116.501 -110.511 -104.285 -98.0924 -91.9701 -85.9494 -80.0625 -74.3346 -68.791 -63.4673 -58.3898 -121.157 -116.997 -111.048 -105.039 -99.0447 -93.1291 -87.3151 -81.6295 -76.0863 -70.7207 -65.5825 -60.6785 -50.9689 -46.2942 -41.9651 -38.0115 -34.4099 -31.214 -28.4466 -26.1221 -24.2443 -22.8133 -21.871 -21.3907 -53.58 -49.068 -44.8909 -41.066 -37.5944 -34.5094 -31.8388 -29.5946 -27.7806 -26.4028 -25.4845 -25.0272 -56.0242 -51.6571 -47.6195 -43.927 -40.5654 -37.579 -35.0005 -32.8317 -31.0829 -29.741 -28.8502 -28.4158 -21.3907 -21.871 -22.8133 -24.2443 -26.1221 -28.4466 -31.214 -34.4099 -38.0115 -41.9651 -46.2942 -50.9689 -25.0272 -25.4845 -26.4028 -27.7806 -29.5946 -31.8388 -34.5094 -37.5944 -41.066 -44.8909 -49.068 -53.58 -28.4158 -28.8502 -29.741 -31.0829 -32.8317 -35.0005 -37.579 -40.5654 -43.927 -47.6195 -51.6571 -56.0242 -55.9489 -61.2101 -66.7347 -72.4746 -78.3975 -84.5048 -90.745 -97.0907 -103.504 -109.955 -116.341 -120.889 -58.3898 -63.4673 -68.791 -74.3346 -80.0625 -85.9494 -91.9701 -98.0924 -104.285 -110.511 -116.501 -119.405 -60.6785 -65.5825 -70.7207 -76.0863 -81.6295 -87.3151 -93.1291 -99.0447 -105.039 -111.048 -116.997 -121.157 
</DataArray>
<DataArray Name="Stress_33" format="ascii" type="Float64">
0 0 0 0 0 0 0 0 0 0 0 0 0 0 0 0 0 0 0 0 0 0 0 0 0 0 0 0 0 0 0 0 0 0 0 0 0 0 0 0 0 0 0 0 0 0 0 0 0 0 0 0 0 0 0 0 0 0 0 0 0 0 0 0 0 0 0 0 0 0 0 0 0 0 0 0 0 0 0 0 0 0 0 0 0 0 0 0 0 0 0 0 0 0 0 0 0 0 0 0 0 0 0 0 0 0 0 0 0 0 0 0 0 0 0 0 0 0 0 0 0 0 0 0 0 0 0 0 0 0 0 0 0 0 0 0 0 0 0 0 0 0 0 0 0 0 0 0 0 0 0 0 0 0 0 0 0 0 0 0 0 0 0 0 0 0 0 0 0 0 0 0 0 0 0 0 0 0 0 0 0 0 0 0 0 0 0 0 0 0 0 0 0 0 0 0 0 0 0 0 0 0 0 0 0 0 0 0 0 0 0 0 0 0 0 0 0 0 0 0 0 0 0 0 0 0 0 0 0 0 0 0 0 0 0 0 0 0 0 0 0 0 0 0 0 0 0 0 0 0 0 0 0 0 0 0 0 0 0 0 0 0 0 0 0 0 0 0 0 0 0 0 0 0 0 0 0 0 0 0 0 0 0 0 0 0 0 0 
</DataArray>
</CellData>
<Points>
<DataArray NumberOfComponents="3" format="ascii" type="Float64">
0 0.09 0 -0.06364 0.06364 0 -0.005886 0.089807 0 -0.011747 0.08923 0 -0.017558 0.088271 0 -0.023294 0.086933 0 -0.02893 0.085224 0 -0.034442 0.083149 0 -0.039806 0.080719 0 -0.045 0.077942 0 -0.050001 0.074832 0 -0.054789 0.071402 0 -0.059341 0.067666 0 -0.065997 0.065997 0 0 0.093333 0 -0.006104 0.093133 0 -0.012182 0.092535 0 -0.018208 0.09154 0 -0.024156 0.090153 0 -0.030001 0.08838 0 -0.035717 0.086229 0 -0.04128 0.083708 0 -0.046667 0.080829 0 -0.051853 0.077604 0 -0.056818 0.074046 0 -0.061539 0.070172 0 -0.068354 0.068354 0 0 0.096667 0 -0.006322 0.09646 0 -0.012618 0.09584 0 -0.018859 0.094809 0 -0.025019 0.093373 0 -0.031072 0.091537 0 -0.036993 0.089308 0 -0.042755 0.086698 0 -0.048333 0.083716 0 -0.053705 0.080375 0 -0.058847 0.076691 0 -0.063737 0.072678 0 -0.070711 0.070711 0 0 0.1 0 -0.00654 0.099786 0 -0.013053 0.099144 0 -0.019509 0.098079 0 -0.025882 0.096593 0 -0.032144 0.094693 0 -0.038268 0.092388 0 -0.044229 0.089687 0 -0.05 0.086603 0 -0.055557 0.083147 0 -0.060876 0.079335 0 -0.065935 0.075184 0 -0.09 0 0 -0.067666 0.059341 0 -0.071402 0.054789 0 -0.074832 0.050001 0 -0.077942 0.045 0 -0.080719 0.039806 0 -0.083149 0.034442 0 -0.085224 0.02893 0 -0.086933 0.023294 0 -0.088271 0.017558 0 -0.08923 0.011747 0 -0.089807 0.005886 0 -0.093333 0 0 -0.070172 0.061539 0 -0.074046 0.056818 0 -0.077604 0.051853 0 -0.080829 0.046667 0 -0.083708 0.04128 0 -0.086229 0.035717 0 -0.08838 0.030001 0 -0.090153 0.024156 0 -0.09154 0.018208 0 -0.092535 0.012182 0 -0.093133 0.006104 0 -0.096667 0 0 -0.072678 0.063737 0 -0.076691 0.058847 0 -0.080375 0.053705 0 -0.083716 0.048333 0 -0.086698 0.042755 0 -0.089308 0.036993 0 -0.091537 0.031072 0 -0.093373 0.025019 0 -0.094809 0.018859 0 -0.09584 0.012618 0 -0.09646 0.006322 0 -0.1 0 0 -0.075184 0.065935 0 -0.079335 0.060876 0 -0.083147 0.055557 0 -0.086603 0.05 0 -0.089687 0.044229 0 -0.092388 0.038268 0 -0.094693 0.032144 0 -0.096593 0.025882 0 -0.098079 0.019509 0 -0.099144 0.013053 0 -0.099786 0.00654 0 -0.06364 -0.06364 0 -0.089807 -0.005886 0 -0.08923 -0.011747 0 -0.088271 -0.017558 0 -0.086933 -0.023294 0 -0.085224 -0.02893 0 -0.083149 -0.034442 0 -0.080719 -0.039806 0 -0.077942 -0.045 0 -0.074832 -0.050001 0 -0.071402 -0.054789 0 -0.067666 -0.059341 0 -0.065997 -0.065997 0 -0.093133 -0.006104 0 -0.092535 -0.012182 0 -0.09154 -0.018208 0 -0.090153 -0.024156 0 -0.08838 -0.030001 0 -0.086229 -0.035717 0 -0.083708 -0.04128 0 -0.080829 -0.046667 0 -0.077604 -0.051853 0 -0.074046 -0.056818 0 -0.070172 -0.061539 0 -0.068354 -0.068354 0 -0.09646 -0.006322 0 -0.09584 -0.012618 0 -0.094809 -0.018859 0 -0.093373 -0.025019 0 -0.091537 -0.031072 0 -0.089308 -0.036993 0 -0.086698 -0.042755 0 -0.083716 -0.048333 0 -0.080375 -0.053705 0 -0.076691 -0.058847 0 -0.072678 -0.063737 0 -0.070711 -0.070711 0 -0.099786 -0.00654 0 -0.099144 -0.013053 0 -0.098079 -0.019509 0 -0.096593 -0.025882 0 -0.094693 -0.032144 0 -0.092388 -0.038268 0 -0.089687 -0.044229 0 -0.086603 -0.05 0 -0.083147 -0.055557 0 -0.079335 -0.060876 0 -0.075184 -0.065935 0 0 -0.09 0 -0.059341 -0.067666 0 -0.054789 -0.071402 0 -0.050001 -0.074832 0 -0.045 -0.077942 0 -0.039806 -0.080719 0 -0.034442 -0.083149 0 -0.02893 -0.085224 0 -0.023294 -0.086933 0 -0.017558 -0.088271 0 -0.011747 -0.08923 0 -0.005886 -0.089807 0 0 -0.093333 0 -0.061539 -0.070172 0 -0.056818 -0.074046 0 -0.051853 -0.077604 0 -0.046667 -0.080829 0 -0.04128 -0.083708 0 -0.035717 -0.086229 0 -0.030001 -0.08838 0 -0.024156 -0.090153 0 -0.018208 -0.09154 0 -0.012182 -0.092535 0 -0.006104 -0.093133 0 0 -0.096667 0 -0.063737 -0.072678 0 -0.058847 -0.076691 0 -0.053705 -0.080375 0 -0.048333 -0.083716 0 -0.042755 -0.086698 0 -0.036993 -0.089308 0 -0.031072 -0.091537 0 -0.025019 -0.093373 0 -0.018859 -0.094809 0 -0.012618 -0.09584 0 -0.006322 -0.09646 0 0 -0.1 0 -0.065935 -0.075184 0 -0.060876 -0.079335 0 -0.055557 -0.083147 0 -0.05 -0.086603 0 -0.044229 -0.089687 0 -0.038268 -0.092388 0 -0.032144 -0.094693 0 -0.025882 -0.096593 0 -0.019509 -0.098079 0 -0.013053 -0.099144 0 -0.00654 -0.099786 0 0.06364 -0.06364 0 0.005886 -0.089807 0 0.011747 -0.08923 0 0.017558 -0.088271 0 0.023294 -0.086933 0 0.02893 -0.085224 0 0.034442 -0.083149 0 0.039806 -0.080719 0 0.045 -0.077942 0 0.050001 -0.074832 0 0.054789 -0.071402 0 0.059341 -0.067666 0 0.065997 -0.065997 0 0.006104 -0.093133 0 0.012182 -0.092535 0 0.018208 -0.09154 0 0.024156 -0.090153 0 0.030001 -0.08838 0 0.035717 -0.086229 0 0.04128 -0.083708 0 0.046667 -0.080829 0 0.051853 -0.077604 0 0.056818 -0.074046 0 0.061539 -0.070172 0 0.068354 -0.068354 0 0.006322 -0.09646 0 0.012618 -0.09584 0 0.018859 -0.094809 0 0.025019 -0.093373 0 0.031072 -0.091537 0 0.036993 -0.089308 0 0.042755 -0.086698 0 0.048333 -0.083716 0 0.053705 -0.080375 0 0.058847 -0.076691 0 0.063737 -0.072678 0 0.070711 -0.070711 0 0.00654 -0.099786 0 0.013053 -0.099144 0 0.019509 -0.098079 0 0.025882 -0.096593 0 0.032144 -0.094693 0 0.038268 -0.092388 0 0.044229 -0.089687 0 0.05 -0.086603 0 0.055557 -0.083147 0 0.060876 -0.079335 0 0.065935 -0.075184 0 0.09 0 0 0.067666 -0.059341 0 0.071402 -0.054789 0 0.074832 -0.050001 0 0.077942 -0.045 0 0.080719 -0.039806 0 0.083149 -0.034442 0 0.085224 -0.02893 0 0.086933 -0.023294 0 0.088271 -0.017558 0 0.08923 -0.011747 0 0.089807 -0.005886 0 0.093333 0 0 0.070172 -0.061539 0 0.074046 -0.056818 0 0.077604 -0.051853 0 0.080829 -0.046667 0 0.083708 -0.04128 0 0.086229 -0.035717 0 0.08838 -0.030001 0 0.090153 -0.024156 0 0.09154 -0.018208 0 0.092535 -0.012182 0 0.093133 -0.006104 0 0.096667 0 0 0.072678 -0.063737 0 0.076691 -0.058847 0 0.080375 -0.053705 0 0.083716 -0.048333 0 0.086698 -0.042755 0 0.089308 -0.036993 0 0.091537 -0.031072 0 0.093373 -0.025019 0 0.094809 -0.018859 0 0.09584 -0.012618 0 0.09646 -0.006322 0 0.1 0 0 0.075184 -0.065935 0 0.079335 -0.060876 0 0.083147 -0.055557 0 0.086603 -0.05 0 0.089687 -0.044229 0 0.092388 -0.038268 0 0.094693 -0.032144 0 0.096593 -0.025882 0 0.098079 -0.019509 0 0.099144 -0.013053 0 0.099786 -0.00654 0 0.06364 0.06364 0 0.089807 0.005886 0 0.08923 0.011747 0 0.088271 0.017558 0 0.086933 0.023294 0 0.085224 0.02893 0 0.083149 0.034442 0 0.080719 0.039806 0 0.077942 0.045 0 0.074832 0.050001 0 0.071402 0.054789 0 0.067666 0.059341 0 0.065997 0.065997 0 0.093133 0.006104 0 0.092535 0.012182 0 0.09154 0.018208 0 0.090153 0.024156 0 0.08838 0.030001 0 0.086229 0.035717 0 0.083708 0.04128 0 0.080829 0.046667 0 0.077604 0.051853 0 0.074046 0.056818 0 0.070172 0.061539 0 0.068354 0.068354 0 0.09646 0.006322 0 0.09584 0.012618 0 0.094809 0.018859 0 0.093373 0.025019 0 0.091537 0.031072 0 0.089308 0.036993 0 0.086698 0.042755 0 0.083716 0.048333 0 0.080375 0.053705 0 0.076691 0.058847 0 0.072678 0.063737 0 0.070711 0.070711 0 0.099786 0.00654 0 0.099144 0.013053 0 0.098079 0.019509 0 0.096593 0.025882 0 0.094693 0.032144 0 0.092388 0.038268 0 0.089687 0.044229 0 0.086603 0.05 0 0.083147 0.055557 0 0.079335 0.060876 0 0.075184 0.065935 0 0.059341 0.067666 0 0.054789 0.071402 0 0.050001 0.074832 0 0.045 0.077942 0 0.039806 0.080719 0 0.034442 0.083149 0 0.02893 0.085224 0 0.023294 0.086933 0 0.017558 0.088271 0 0.011747 0.08923 0 0.005886 0.089807 0 0.061539 0.070172 0 0.056818 0.074046 0 0.051853 0.077604 0 0.046667 0.080829 0 0.04128 0.083708 0 0.035717 0.086229 0 0.030001 0.08838 0 0.024156 0.090153 0 0.018208 0.09154 0 0.012182 0.092535 0 0.006104 0.093133 0 0.063737 0.072678 0 0.058847 0.076691 0 0.053705 0.080375 0 0.048333 0.083716 0 0.042755 0.086698 0 0.036993 0.089308 0 0.031072 0.091537 0 0.025019 0.093373 0 0.018859 0.094809 0 0.012618 0.09584 0 0.006322 0.09646 0 0.065935 0.075184 0 0.060876 0.079335 0 0.055557 0.083147 0 0.05 0.086603 0 0.044229 0.089687 0 0.038268 0.092388 0 0.032144 0.094693 0 0.025882 0.096593 0 0.019509 0.098079 0 0.013053 0.099144 0 0.00654 0.099786 0 
</DataArray>
</Points>
<Cells>
<DataArray Name="connectivity" format="ascii" type="Int64">