<?xml version="1.0"?>
<VTKFile byte_order="LittleEndian" type="UnstructuredGrid" version="0.1">
<UnstructuredGrid>
<Piece NumberOfCells="288" NumberOfPoints="384">
<PointData>
<DataArray Name="Warping_X" format="ascii" type="Float64">
-2.74188 -2.68491 -2.95089 -3.11566 -3.23633 -3.31358 -3.34912 -3.34508 -3.30439 -3.23037 -3.12699 -2.99853 -2.84955 -2.76771 -2.92499 -3.14098 -3.30945 -3.43034 -3.50475 -3.5344 -3.52175 -3.46985 -3.38244 -3.26372 -3.1183 -2.95124 -2.85044 -3.11584 -3.33858 -3.5104 -3.63122 -3.70234 -3.7256 -3.70361 -3.63984 -3.53818 -3.4032 -3.23999 -3.05384 -2.9331 -3.31428 -3.54354 -3.71831 -3.8389 -3.90628 -3.92256 -3.89067 -3.81422 -3.69755 -3.54548 -3.36347 -3.15733 -1.16614 -2.50957 -2.32862 -2.14695 -1.96947 -1.80073 -1.64505 -1.50626 -1.38783 -1.29259 -1.22291 -1.18042 -1.09476 -2.57309 -2.37286 -2.17233 -1.9768 -1.79115 -1.62005 -1.4677 -1.33775 -1.23334 -1.15695 -1.11041 -1.01581 -2.63557 -2.41509 -2.1948 -1.98029 -1.77695 -1.58974 -1.42311 -1.28114 -1.16713 -1.08372 -1.03289 -0.92938 -2.697 -2.45533 -2.21433 -1.98001 -1.75816 -1.55405 -1.3726 -1.21802 -1.09394 -1.00324 -0.947944 -2.68491 -1.18042 -1.22291 -1.29259 -1.38783 -1.50626 -1.64505 -1.80073 -1.96947 -2.14695 -2.32862 -2.50957 -2.76771 -1.11041 -1.15695 -1.23334 -1.33775 -1.4677 -1.62005 -1.79115 -1.9768 -2.17233 -2.37286 -2.57309 -2.85044 -1.03289 -1.08372 -1.16713 -1.28114 -1.42311 -1.58974 -1.77695 -1.98029 -2.1948 -2.41509 -2.63557 -2.9331 -0.947944 -1.00324 -1.09394 -1.21802 -1.3726 -1.55405 -1.75816 -1.98001 -2.21433 -2.45533 -2.697 -2.74188 -2.84955 -2.99853 -3.12699 -3.23037 -3.30439 -3.34508 -3.34912 -3.31358 -3.23633 -3.11566 -2.95089 -2.92499 -2.95124 -3.1183 -3.26372 -3.38244 -3.46985 -3.52175 -3.5344 -3.50475 -3.43034 -3.30945 -3.14098 -3.11584 -3.05384 -3.23999 -3.4032 -3.53818 -3.63984 -3.70361 -3.7256 -3.70234 -3.63122 -3.5104 -3.33858 -3.31428 -3.15733 -3.36347 -3.54548 -3.69755 -3.81422 -3.89067 -3.92256 -3.90628 -3.8389 -3.71831 -3.54354 2.6608 -2.47718 -2.16978 -1.82007 -1.42974 -1.00161 -0.539088 -0.0467652 0.470378 1.0063 1.55468 2.10852 2.73361 -2.65852 -2.34443 -1.98411 -1.57922 -1.13261 -0.648218 -0.130721 0.41426 0.980278 1.5606 2.14757 2.80653 -2.84655 -2.52586 -2.1545 -1.7346 -1.26909 -0.762016 -0.218765 0.354741 0.951804 1.56479 2.18583 2.87931 -3.04211 -2.71447 -2.33194 -1.89644 -1.41136 -0.8812 -0.311348 0.291552 0.920383 1.56705 2.22303 6.68118 3.20403 3.73072 4.23365 4.70563 5.14 5.53023 5.87085 6.15665 6.38359 6.54807 6.64775 7.01484 3.31068 3.8707 4.40595 4.9085 5.37122 5.78725 6.15036 6.45525 6.6973 6.87285 6.97918 7.35545 3.41832 4.01263 4.58085 5.11489 5.60671 6.04903 6.43542 6.75979 7.01732 7.20423 7.3175 7.70288 3.52676 4.15617 4.75843 5.32466 5.84632 6.3158 6.72584 7.07031 7.34386 7.54221 7.66258 2.6608 6.64775 6.54807 6.38359 6.15665 5.87085 5.53023 5.14 4.70563 4.23365 3.73072 3.20403 2.73361 6.97918 6.87285 6.6973 6.45525 6.15036 5.78725 5.37122 4.9085 4.40595 3.8707 3.31068 2.80653 7.3175 7.20423 7.01732 6.75979 6.43542 6.04903 5.60671 5.11489 4.58085 4.01263 3.41832 2.87931 7.66258 7.54221 7.34386 7.07031 6.72584 6.3158 5.84632 5.32466 4.75843 4.15617 3.52676 2.10852 1.55468 1.0063 0.470378 -0.0467652 -0.539088 -1.00161 -1.42974 -1.82007 -2.16978 -2.47718 2.14757 1.5606 0.980278 0.41426 -0.130721 -0.648218 -1.13261 -1.57922 -1.98411 -2.34443 -2.65852 2.18583 1.56479 0.951804 0.354741 -0.218765 -0.762016 -1.26909 -1.7346 -2.1545 -2.52586 -2.84655 2.22303 1.56705 0.920383 0.291552 -0.311348 -0.8812 -1.41136 -1.89644 -2.33194 -2.71447 -3.04211 
</DataArray>
<DataArray Name="Warping_Y" format="ascii" type="Float64">
3.09808 -0.275457 2.77521 2.44227 2.10583 1.77136 1.44429 1.12957 0.831908 0.55538 0.303683 0.0797849 -0.113805 -0.375474 3.2293 2.8805 2.52207 2.16037 1.80141 1.45089 1.11425 0.79643 0.501869 0.234541 -0.00241361 -0.206346 -0.482961 3.36056 2.98486 2.59987 2.21202 1.82768 1.45296 1.09358 0.754994 0.441941 0.158496 -0.0918224 -0.306292 -0.597871 3.4919 3.08818 2.67582 2.26091 1.85024 1.45045 1.06774 0.70771 0.375538 0.0755976 -0.1884 -0.413597 -1.12753e-11 -0.404059 -0.499293 -0.561497 -0.591754 -0.591745 -0.563734 -0.510632 -0.435775 -0.343001 -0.236452 -0.120579 -1.07465e-11 -0.508662 -0.605573 -0.666665 -0.693044 -0.686562 -0.649761 -0.585725 -0.498131 -0.391117 -0.269184 -0.13714 -1.02172e-11 -0.62067 -0.719102 -0.778703 -0.800791 -0.787347 -0.741067 -0.665384 -0.564243 -0.442113 -0.303874 -0.154681 -9.68841e-12 -0.740038 -0.839767 -0.897634 -0.914984 -0.893981 -0.837625 -0.749565 -0.63407 -0.49594 -0.340454 -0.173187 0.275457 0.120579 0.236452 0.343001 0.435775 0.510632 0.563734 0.591745 0.591754 0.561497 0.499293 0.404059 0.375474 0.13714 0.269184 0.391117 0.498131 0.585725 0.649761 0.686562 0.693044 0.666665 0.605573 0.508662 0.482961 0.154681 0.303874 0.442113 0.564243 0.665384 0.741067 0.787347 0.800791 0.778703 0.719102 0.62067 0.597871 0.173187 0.340454 0.49594 0.63407 0.749565 0.837625 0.893981 0.914984 0.897634 0.839767 0.740038 -3.09808 0.113805 -0.0797849 -0.303683 -0.55538 -0.831908 -1.12957 -1.44429 -1.77136 -2.10583 -2.44227 -2.77521 -3.2293 0.206346 0.00241361 -0.234541 -0.501869 -0.79643 -1.11425 -1.45089 -1.80141 -2.16037 -2.52207 -2.8805 -3.36056 0.306292 0.0918224 -0.158496 -0.441941 -0.754994 -1.09358 -1.45296 -1.82768 -2.21202 -2.59987 -2.98486 -3.4919 0.413597 0.1884 -0.0755976 -0.375538 -0.70771 -1.06774 -1.45045 -1.85024 -2.26091 -2.67582 -3.08818 -4.95755 -3.41562 -3.723 -4.01516 -4.28487 -4.52562 -4.73107 -4.89566 -5.01428 -5.08275 -5.09772 -5.05647 -5.27214 -3.57054 -3.90369 -4.22054 -4.51379 -4.77623 -5.0011 -5.18221 -5.31424 -5.39244 -5.41314 -5.37363 -5.59396 -3.72786 -4.08722 -4.42963 -4.74713 -5.03193 -5.27676 -5.47503 -5.62072 -5.70895 -5.73576 -5.69804 -5.92328 -3.8871 -4.27338 -4.64227 -4.98482 -5.2927 -5.55813 -5.774 -5.93399 -6.03263 -6.06564 -6.02991 2.90544e-11 -4.80027 -4.5852 -4.31353 -3.98791 -3.61155 -3.18865 -2.72423 -2.224 -1.69439 -1.14227 -0.574966 2.53841e-11 -5.10795 -4.88158 -4.59449 -4.24932 -3.84946 -3.39964 -2.90512 -2.3721 -1.80749 -1.21865 -0.613449 2.17474e-11 -5.42276 -5.18491 -4.88198 -4.51676 -4.0931 -3.61566 -3.09032 -2.52379 -1.92336 -1.29695 -0.652849 1.80756e-11 -5.74495 -5.49535 -5.17632 -4.79067 -4.34243 -3.83679 -3.28004 -2.67913 -2.04194 -1.37701 -0.693195 4.95755 0.574966 1.14227 1.69439 2.224 2.72423 3.18865 3.61155 3.98791 4.31353 4.5852 4.80027 5.27214 0.613449 1.21865 1.80749 2.3721 2.90512 3.39964 3.84946 4.24932 4.59449 4.88158 5.10795 5.59396 0.652849 1.29695 1.92336 2.52379 3.09032 3.61566 4.0931 4.51676 4.88198 5.18491 5.42276 5.92328 0.693195 1.37701 2.04194 2.67913 3.28004 3.83679 4.34243 4.79067 5.17632 5.49535 5.74495 5.05647 5.09772 5.08275 5.01428 4.89566 4.73107 4.52562 4.28487 4.01516 3.723 3.41562 5.37363 5.41314 5.39244 5.31424 5.18221 5.0011 4.77623 4.51379 4.22054 3.90369 3.57054 5.69804 5.73576 5.70895 5.62072 5.47503 5.27676 5.03193 4.74713 4.42963 4.08722 3.72786 6.02991 6.06564 6.03263 5.93399 5.774 5.55813 5.2927 4.98482 4.64227 4.27338 3.8871 
</DataArray>
<DataArray Name="Warping_Z" format="ascii" type="Float64">
0 0 0 0 0 0 0 0 0 0 0 0 0 0 0 0 0 0 0 0 0 0 0 0 0 0 0 0 0 0 0 0 0 0 0 0 0 0 0 0 0 0 0 0 0 0 0 0 0 0 0 0 0 0 0 0 0 0 0 0 0 0 0 0 0 0 0 0 0 0 0 0 0 0 0 0 0 0 0 0 0 0 0 0 0 0 0 0 0 0 0 0 0 0 0 0 0 0 0 0 0 0 0 0 0 0 0 0 0 0 0 0 0 0 0 0 0 0 0 0 0 0 0 0 0 0 0 0 0 0 0 0 0 0 0 0 0 0 0 0 0 0 0 0 0 0 0 0 0 0 0 0 0 0 0 0 0 0 0 0 0 0 0 0 0 0 0 0 0 0 0 0 0 0 0 0 0 0 0 0 0 0 0 0 0 0 0 0 0 0 0 0 0 0 0 0 0 0 0 0 0 0 0 0 0 0 0 0 0 0 0 0 0 0 0 0 0 0 0 0 0 0 0 0 0 0 0 0 0 0 0 0 0 0 0 0 0 0 0 0 0 0 0 0 0 0 0 0 0 0 0 0 0 0 0 0 0 0 0 0 0 0 0 0 0 0 0 0 0 0 0 0 0 0 0 0 0 0 0 0 0 0 0 0 0 0 0 0 0 0 0 0 0 0 0 0 0 0 0 0 0 0 0 0 0 0 0 0 0 0 0 0 0 0 0 0 0 0 0 0 0 0 0 0 0 0 0 0 0 0 0 0 0 0 0 0 0 0 0 0 0 0 0 0 0 0 0 0 0 0 0 0 0 0 0 0 0 0 0 0 0 0 0 0 0 0 0 0 0 0 0 0 0 0 0 0 0 0 0 0 0 0 0 0 
</DataArray>
</PointData>
<CellData>
<DataArray Name="MaterialId" format="ascii" type="Float64">
1 1 1 1 1 1 1 1 1 1 1 1 1 1 1 1 1 1 1 1 1 1 1 1 1 1 1 1 1 1 1 1 1 1 1 1 1 1 1 1 1 1 1 1 1 1 1 1 1 1 1 1 1 1 1 1 1 1 1 1 1 1 1 1 1 1 1 1 1 1 1 1 1 1 1 1 1 1 1 1 1 1 1 1 1 1 1 1 1 1 1 1 1 1 1 1 1 1 1 1 1 1 1 1 1 1 1 1 1 1 1 1 1 1 1 1 1 1 1 1 1 1 1 1 1 1 1 1 1 1 1 1 1 1 1 1 1 1 1 1 1 1 1 1 2 2 2 2 2 2 2 2 2 2 2 2 2 2 2 2 2 2 2 2 2 2 2 2 2 2 2 2 2 2 2 2 2 2 2 2 2 2 2 2 2 2 2 2 2 2 2 2 2 2 2 2 2 2 2 2 2 2 2 2 2 2 2 2 2 2 2 2 2 2 2 2 2 2 2 2 2 2 2 2 2 2 2 2 2 2 2 2 2 2 2 2 2 2 2 2 2 2 2 2 2 2 2 2 2 2 2 2 2 2 2 2 2 2 2 2 2 2 2 2 2 2 2 2 2 2 2 2 2 2 2 2 2 2 2 2 2 2 2 2 2 2 2 2 
</DataArray>
<DataArray Name="FiberAngle" format="ascii" type="Float64">
0 0 0 0 0 0 0 0 0 0 0 0 0 0 0 0 0 0 0 0 0 0 0 0 0 0 0 0 0 0 0 0 0 0 0 0 0 0 0 0 0 0 0 0 0 0 0 0 0 0 0 0 0 0 0 0 0 0 0 0 0 0 0 0 0 0 0 0 0 0 0 0 0 0 0 0 0 0 0 0 0 0 0 0 0 0 0 0 0 0 0 0 0 0 0 0 0 0 0 0 0 0 0 0 0 0 0 0 0 0 0 0 0 0 0 0 0 0 0 0 0 0 0 0 0 0 0 0 0 0 0 0 0 0 0 0 0 0 0 0 0 0 0 0 0 0 0 0 0 0 0 0 0 0 0 0 0 0 0 0 0 0 0 0 0 0 0 0 0 0 0 0 0 0 0 0 0 0 0 0 0 0 0 0 0 0 0 0 0 0 0 0 0 0 0 0 0 0 0 0 0 0 0 0 0 0 0 0 0 0 0 0 0 0 0 0 0 0 0 0 0 0 0 0 0 0 0 0 0 0 0 0 0 0 0 0 0 0 0 0 0 0 0 0 0 0 0 0 0 0 0 0 0 0 0 0 0 0 0 0 0 0 0 0 0 0 0 0 0 0 0 0 0 0 0 0 0 0 0 0 0 0 0 0 0 0 0 0 
</DataArray>
<DataArray Name="Strain_11" format="ascii" type="Float64">
37.243 33.2869 29.3454 25.4416 21.5988 17.8338 14.1626 10.6006 7.16395 3.86657 0.722811 -2.25372 37.1779 33.0937 29.0072 24.9772 21.0076 17.1151 13.3176 9.63106 6.07092 2.65285 -0.608916 -3.70016 37.0862 32.8744 28.6678 24.5064 20.4071 16.3867 12.4618 8.64969 4.96669 1.42794 -1.9512 -5.15583 -5.05098 -7.65664 -10.0607 -12.2527 -14.224 -15.9668 -17.4735 -18.7383 -19.7563 -20.5234 -21.0362 -21.2932 -6.60756 -9.31867 -11.8217 -14.1066 -16.1632 -17.9818 -19.556 -20.8782 -21.9426 -22.7453 -23.282 -23.5511 -8.17202 -10.9863 -13.5871 -15.9623 -18.1014 -19.9946 -21.6339 -23.0116 -24.1211 -24.9578 -25.5177 -25.7984 -21.2932 -21.0362 -20.5234 -19.7563 -18.7383 -17.4735 -15.9668 -14.224 -12.2527 -10.0607 -7.65664 -5.05098 -23.5511 -23.282 -22.7453 -21.9426 -20.8782 -19.556 -17.9818 -16.1632 -14.1066 -11.8217 -9.31867 -6.60756 -25.7984 -25.5177 -24.9578 -24.1211 -23.0116 -21.6339 -19.9946 -18.1014 -15.9623 -13.5871 -10.9863 -8.17202 -2.25372 0.722811 3.86657 7.16395 10.6006 14.1626 17.8338 21.5988 25.4416 29.3454 33.2869 37.243 -3.70016 -0.608916 2.65285 6.07092 9.63106 13.3176 17.1151 21.0076 24.9772 29.0072 33.0937 37.1779 -5.15583 -1.9512 1.42794 4.96669 8.64969 12.4618 16.3867 20.4071 24.5064 28.6678 32.8744 37.0862 42.4618 46.3224 50.1146 53.8653 57.5567 61.1785 64.7176 68.1614 71.4967 74.711 77.7908 80.7225 41.2088 45.3755 49.4569 53.5047 57.4898 61.3959 65.205 68.9009 72.4676 75.8896 79.1525 82.2423 40.1178 44.4745 48.8522 53.1737 57.4325 61.6036 65.6668 69.6016 73.389 77.0121 80.4548 83.7023 83.4932 86.089 88.4981 90.707 92.7044 94.4793 96.0209 97.3203 98.3698 99.1628 99.694 99.9605 85.1459 87.851 90.3464 92.6223 94.6695 96.478 98.0425 99.356 100.413 101.209 101.742 102.009 86.7416 89.561 92.1512 94.5029 96.609 98.4633 100.061 101.398 102.471 103.277 103.816 104.086 99.9605 99.694 99.1628 98.3698 97.3203 96.0209 94.4793 92.7044 90.707 88.4981 86.089 83.4932 102.009 101.742 101.209 100.413 99.356 98.0425 96.478 94.6695 92.6223 90.3464 87.851 85.1459 104.086 103.816 103.277 102.471 101.398 100.061 98.4633 96.609 94.5029 92.1512 89.561 86.7416 80.7225 77.7908 74.711 71.4967 68.1614 64.7176 61.1785 57.5567 53.8653 50.1146 46.3224 42.4618 82.2423 79.1525 75.8896 72.4676 68.9009 65.205 61.3959 57.4898 53.5047 49.4569 45.3755 41.2088 83.7023 80.4548 77.0121 73.389 69.6016 65.6668 61.6036 57.4325 53.1737 48.8522 44.4745 40.1178 
</DataArray>
<DataArray Name="Strain_22" format="ascii" type="Float64">
37.3104 33.2928 29.3703 25.4808 21.65 17.8917 14.2241 10.6606 7.21769 3.90969 0.750379 -2.24575 37.2425 33.0704 29.0022 24.9725 20.9997 17.1066 13.3075 9.62033 6.06033 2.64184 -0.619293 -3.70982 37.1825 32.85 28.6437 24.4677 20.3571 16.3284 12.4004 8.58887 4.91119 1.38263 -1.98221 -5.16827 -5.06629 -7.69818 -10.1302 -12.3517 -14.3525 -16.1237 -17.6571 -18.9456 -19.9838 -20.7667 -21.2905 -21.5529 -6.61622 -9.32581 -11.8278 -14.1108 -16.1654 -17.983 -19.5552 -20.876 -21.9393 -22.7408 -23.2773 -23.5457 -8.1623 -10.952 -13.5256 -15.8729 -17.9839 -19.8497 -21.4634 -22.8182 -23.9085 -24.7299 -25.2794 -25.5548 -21.5529 -21.2905 -20.7667 -19.9838 -18.9456 -17.6571 -16.1237 -14.3525 -12.3517 -10.1302 -7.69818 -5.06629 -23.5457 -23.2773 -22.7408 -21.9393 -20.876 -19.5552 -17.983 -16.1654 -14.1108 -11.8278 -9.32581 -6.61622 -25.5548 -25.2794 -24.7299 -23.9085 -22.8182 -21.4634 -19.8497 -17.9839 -15.8729 -13.5256 -10.952 -8.1623 -2.24575 0.750379 3.90969 7.21769 10.6606 14.2241 17.8917 21.65 25.4808 29.3703 33.2928 37.3104 -3.70982 -0.619293 2.64184 6.06033 9.62033 13.3075 17.1066 20.9997 24.9725 29.0022 33.0704 37.2425 -5.16827 -1.98221 1.38263 4.91119 8.58887 12.4004 16.3284 20.3571 24.4677 28.6437 32.85 37.1825 41.127 44.8928 48.9011 52.8293 56.7057 60.5024 64.2003 67.7828 71.2315 74.5308 77.6665 80.6245 41.414 45.4351 49.4858 53.5021 57.4537 61.3291 65.1125 68.7864 72.3361 75.747 79.0034 82.0921 41.6527 45.9188 50.0544 54.1679 58.2133 62.1839 66.0642 69.8409 73.499 77.0246 80.4036 83.6204 83.3935 85.9624 88.3223 90.4655 92.3849 94.0751 95.5314 96.7499 97.728 98.4635 98.9545 99.2001 84.9992 87.7119 90.2189 92.5083 94.5703 96.396 97.9761 99.3044 100.374 101.181 101.721 101.992 86.6606 89.5098 92.1536 94.5788 96.7718 98.7199 100.413 101.84 102.992 103.862 104.446 104.739 99.2001 98.9545 98.4635 97.728 96.7499 95.5314 94.0751 92.3849 90.4655 88.3223 85.9624 83.3935 101.992 101.721 101.181 100.374 99.3044 97.9761 96.396 94.5703 92.5083 90.2189 87.7119 84.9992 104.739 104.446 103.862 102.992 101.84 100.413 98.7199 96.7718 94.5788 92.1536 89.5098 86.6606 80.6245 77.6665 74.5308 71.2315 67.7828 64.2003 60.5024 56.7057 52.8293 48.9011 44.8928 41.127 82.0921 79.0034 75.747 72.3361 68.7864 65.1125 61.3291 57.4537 53.5021 49.4858 45.4351 41.414 83.6204 80.4036 77.0246 73.499 69.8409 66.0642 62.1839 58.2133 54.1679 50.0544 45.9188 41.6527 
</DataArray>
<DataArray Name="Strain_12" format="ascii" type="Float64">
-0.0291603 0.0182173 -0.015164 -0.0253285 -0.0392034 -0.0565772 -0.0765994 -0.0969047 -0.11819 -0.138605 -0.156759 -0.172738 -0.0150004 -0.00737061 -0.0127611 -0.0115282 -0.00989907 -0.00842755 -0.00646809 -0.00498409 -0.00298561 -0.000556512 0.000716668 0.00274959 0.0169499 -0.0239745 0.00835022 0.0171139 0.0304281 0.0477503 0.0665628 0.0872708 0.10755 0.127165 0.145598 0.161172 -0.184966 -0.193311 -0.196715 -0.194946 -0.188246 -0.176115 -0.158641 -0.137145 -0.110905 -0.0818416 -0.0499995 -0.0169094 0.00428313 0.00523662 0.0065857 0.0066103 0.00753949 0.00728867 0.00625703 0.00628586 0.00497371 0.00360272 0.00225571 0.000770828 0.173484 0.181673 0.185483 0.184398 0.178133 0.166586 0.151079 0.129983 0.105349 0.0779874 0.0475555 0.0160933 0.0169094 0.0499995 0.0818416 0.110905 0.137145 0.158641 0.176115 0.188246 0.194946 0.196715 0.193311 0.184966 -0.000770828 -0.00225571 -0.00360272 -0.00497371 -0.00628586 -0.00625703 -0.00728867 -0.00753949 -0.0066103 -0.0065857 -0.00523662 -0.00428313 -0.0160933 -0.0475555 -0.0779874 -0.105349 -0.129983 -0.151079 -0.166586 -0.178133 -0.184398 -0.185483 -0.181673 -0.173484 0.172738 0.156759 0.138605 0.11819 0.0969047 0.0765994 0.0565772 0.0392034 0.0253285 0.015164 -0.0182173 0.0291603 -0.00274959 -0.000716668 0.000556512 0.00298561 0.00498409 0.00646809 0.00842755 0.00989907 0.0115282 0.0127611 0.00737061 0.0150004 -0.161172 -0.145598 -0.127165 -0.10755 -0.0872708 -0.0665628 -0.0477503 -0.0304281 -0.0171139 -0.00835022 0.0239745 -0.0169499 -0.172294 0.17805 0.269477 0.36414 0.413073 0.425098 0.403277 0.352167 0.279008 0.189591 0.0902397 -0.0113885 -0.147687 -0.254605 -0.222408 -0.229088 -0.217812 -0.204128 -0.185504 -0.162938 -0.138312 -0.112539 -0.0854059 -0.0597706 -0.166393 -0.411436 -0.538966 -0.619476 -0.660755 -0.658649 -0.619587 -0.549534 -0.454306 -0.341809 -0.219862 -0.0952159 -0.109659 -0.198231 -0.272595 -0.32885 -0.363786 -0.376224 -0.366317 -0.333754 -0.282457 -0.214056 -0.133715 -0.0453863 -0.0354701 -0.0132464 0.00490213 0.0206594 0.0308319 0.0377095 0.0410521 0.0387299 0.0343617 0.026913 0.0169925 0.00580518 0.024709 0.133739 0.226136 0.29764 0.345587 0.368437 0.364367 0.337288 0.28762 0.219 0.137466 0.0467197 0.0453863 0.133715 0.214056 0.282457 0.333754 0.366317 0.376224 0.363786 0.32885 0.272595 0.198231 0.109659 -0.00580518 -0.0169925 -0.026913 -0.0343617 -0.0387299 -0.0410521 -0.0377095 -0.0308319 -0.0206594 -0.00490213 0.0132464 0.0354701 -0.0467197 -0.137466 -0.219 -0.28762 -0.337288 -0.364367 -0.368437 -0.345587 -0.29764 -0.226136 -0.133739 -0.024709 0.0113885 -0.0902397 -0.189591 -0.279008 -0.352167 -0.403277 -0.425098 -0.413073 -0.36414 -0.269477 -0.17805 0.172294 0.0597706 0.0854059 0.112539 0.138312 0.162938 0.185504 0.204128 0.217812 0.229088 0.222408 0.254605 0.147687 0.0952159 0.219862 0.341809 0.454306 0.549534 0.619587 0.658649 0.660755 0.619476 0.538966 0.411436 0.166393 
</DataArray>
<DataArray Name="Strain_13" format="ascii" type="Float64">
0 0 0 0 0 0 0 0 0 0 0 0 0 0 0 0 0 0 0 0 0 0 0 0 0 0 0 0 0 0 0 0 0 0 0 0 0 0 0 0 0 0 0 0 0 0 0 0 0 0 0 0 0 0 0 0 0 0 0 0 0 0 0 0 0 0 0 0 0 0 0 0 0 0 0 0 0 0 0 0 0 0 0 0 0 0 0 0 0 0 0 0 0 0 0 0 0 0 0 0 0 0 0 0 0 0 0 0 0 0 0 0 0 0 0 0 0 0 0 0 0 0 0 0 0 0 0 0 0 0 0 0 0 0 0 0 0 0 0 0 0 0 0 0 0 0 0 0 0 0 0 0 0 0 0 0 0 0 0 0 0 0 0 0 0 0 0 0 0 0 0 0 0 0 0 0 0 0 0 0 0 0 0 0 0 0 0 0 0 0 0 0 0 0 0 0 0 0 0 0 0 0 0 0 0 0 0 0 0 0 0 0 0 0 0 0 0 0 0 0 0 0 0 0 0 0 0 0 0 0 0 0 0 0 0 0 0 0 0 0 0 0 0 0 0 0 0 0 0 0 0 0 0 0 0 0 0 0 0 0 0 0 0 0 0 0 0 0 0 0 0 0 0 0 0 0 0 0 0 0 0 0 0 0 0 0 0 0 
</DataArray>
<DataArray Name="Strain_23" format="ascii" type="Float64">
0 0 0 0 0 0 0 0 0 0 0 0 0 0 0 0 0 0 0 0 0 0 0 0 0 0 0 0 0 0 0 0 0 0 0 0 0 0 0 0 0 0 0 0 0 0 0 0 0 0 0 0 0 0 0 0 0 0 0 0 0 0 0 0 0 0 0 0 0 0 0 0 0 0 0 0 0 0 0 0 0 0 0 0 0 0 0 0 0 0 0 0 0 0 0 0 0 0 0 0 0 0 0 0 0 0 0 0 0 0 0 0 0 0 0 0 0 0 0 0 0 0 0 0 0 0 0 0 0 0 0 0 0 0 0 0 0 0 0 0 0 0 0 0 0 0 0 0 0 0 0 0 0 0 0 0 0 0 0 0 0 0 0 0 0 0 0 0 0 0 0 0 0 0 0 0 0 0 0 0 0 0 0 0 0 0 0 0 0 0 0 0 0 0 0 0 0 0 0 0 0 0 0 0 0 0 0 0 0 0 0 0 0 0 0 0 0 0 0 0 0 0 0 0 0 0 0 0 0 0 0 0 0 0 0 0 0 0 0 0 0 0 0 0 0 0 0 0 0 0 0 0 0 0 0 0 0 0 0 0 0 0 0 0 0 0 0 0 0 0 0 0 0 0 0 0 0 0 0 0 0 0 0 0 0 0 0 0 
</DataArray>
<DataArray Name="Strain_33" format="ascii" type="Float64">
0.0029975 0.00897975 0.0149237 0.020804 0.0265952 0.0322725 0.0378112 0.0431882 0.0483802 0.0533653 0.0581217 0.0626292 0.0031065 0.0093065 0.0154668 0.0215605 0.027562 0.0334457 0.0391862 0.0447587 0.0501395 0.0553058 0.0602353 0.0649067 0.0032155 0.00963325 0.0160097 0.0223173 0.0285293 0.0346192 0.0405612 0.0463293 0.0518988 0.0572462 0.0623487 0.0671843 0.0668688 0.0708215 0.074471 0.0778018 0.0807995 0.0834513 0.0857455 0.0876725 0.0892242 0.090394 0.0911762 0.0915682 0.0693003 0.0733967 0.077179 0.080631 0.0837377 0.0864858 0.0888635 0.0908607 0.0924688 0.093681 0.094492 0.0948983 0.0717317 0.075972 0.079887 0.0834602 0.086676 0.0895203 0.0919815 0.094049 0.0957135 0.096968 0.0978075 0.0982283 0.0915682 0.0911763 0.090394 0.0892242 0.0876725 0.0857455 0.0834513 0.0807995 0.0778018 0.074471 0.0708215 0.0668688 0.0948982 0.094492 0.093681 0.0924687 0.0908608 0.0888635 0.0864858 0.0837377 0.080631 0.077179 0.0733968 0.0693003 0.0982283 0.0978075 0.096968 0.0957135 0.094049 0.0919815 0.0895202 0.086676 0.0834602 0.079887 0.075972 0.0717317 0.0626292 0.0581217 0.0533652 0.0483802 0.0431882 0.0378112 0.0322725 0.0265952 0.020804 0.0149237 0.00897975 0.0029975 0.0649067 0.0602352 0.0553058 0.0501395 0.0447587 0.0391862 0.0334457 0.027562 0.0215605 0.0154668 0.0093065 0.0031065 0.0671843 0.0623487 0.0572462 0.0518988 0.0463293 0.0405613 0.0346192 0.0285292 0.0223173 0.0160097 0.00963325 0.0032155 -0.0029975 -0.00897975 -0.0149237 -0.020804 -0.0265952 -0.0322725 -0.0378112 -0.0431882 -0.0483802 -0.0533653 -0.0581217 -0.0626292 -0.0031065 -0.0093065 -0.0154668 -0.0215605 -0.027562 -0.0334457 -0.0391862 -0.0447587 -0.0501395 -0.0553058 -0.0602353 -0.0649067 -0.0032155 -0.00963325 -0.0160097 -0.0223173 -0.0285293 -0.0346192 -0.0405612 -0.0463293 -0.0518988 -0.0572462 -0.0623487 -0.0671843 -0.0668688 -0.0708215 -0.074471 -0.0778018 -0.0807995 -0.0834513 -0.0857455 -0.0876725 -0.0892242 -0.090394 -0.0911762 -0.0915682 -0.0693003 -0.0733967 -0.077179 -0.080631 -0.0837377 -0.0864858 -0.0888635 -0.0908607 -0.0924688 -0.093681 -0.094492 -0.0948983 -0.0717317 -0.075972 -0.079887 -0.0834602 -0.086676 -0.0895203 -0.0919815 -0.094049 -0.0957135 -0.096968 -0.0978075 -0.0982283 -0.0915682 -0.0911763 -0.090394 -0.0892242 -0.0876725 -0.0857455 -0.0834513 -0.0807995 -0.0778018 -0.074471 -0.0708215 -0.0668688 -0.0948982 -0.094492 -0.093681 -0.0924687 -0.0908608 -0.0888635 -0.0864858 -0.0837377 -0.080631 -0.077179 -0.0733968 -0.0693003 -0.0982283 -0.0978075 -0.096968 -0.0957135 -0.094049 -0.0919815 -0.0895202 -0.086676 -0.0834602 -0.079887 -0.075972 -0.0717317 -0.0626292 -0.0581217 -0.0533652 -0.0483802 -0.0431882 -0.0378112 -0.0322725 -0.0265952 -0.020804 -0.0149237 -0.00897975 -0.0029975 -0.0649067 -0.0602352 -0.0553058 -0.0501395 -0.0447587 -0.0391862 -0.0334457 -0.027562 -0.0215605 -0.0154668 -0.0093065 -0.0031065 -0.0671843 -0.0623487 -0.0572462 -0.0518988 -0.0463293 -0.0405613 -0.0346192 -0.0285292 -0.0223173 -0.0160097 -0.00963325 -0.0032155 
</DataArray>
<DataArray Name="Stress_11" format="ascii" type="Float64">
5174.59 4623.59 4076.86 3535.22 3002 2479.42 1969.78 1475.18 997.829 539.704 102.771 -311.055 5165.48 4595.96 4029.07 3469.52 2918.27 2377.79 1850.47 1338.59 844.282 369.682 -83.1868 -512.376 5153.63 4565.48 3981.41 3403.22 2833.73 2275.27 1730.23 1200.94 689.719 198.657 -270.129 -714.566 -700.093 -1062.61 -1397.19 -1702.35 -1976.88 -2219.65 -2429.59 -2605.86 -2747.78 -2854.73 -2926.23 -2962.06 -916.032 -1292.42 -1639.93 -1957.12 -2242.63 -2495.1 -2713.62 -2897.17 -3044.93 -3156.35 -3230.86 -3268.21 -1132.74 -1522.81 -1883.17 -2212.18 -2508.41 -2770.52 -2997.42 -3188.07 -3341.59 -3457.33 -3534.79 -3573.62 -2962.06 -2926.23 -2854.73 -2747.78 -2605.86 -2429.59 -2219.65 -1976.88 -1702.35 -1397.19 -1062.61 -700.093 -3268.21 -3230.86 -3156.35 -3044.93 -2897.17 -2713.62 -2495.1 -2242.63 -1957.12 -1639.93 -1292.42 -916.032 -3573.62 -3534.79 -3457.33 -3341.59 -3188.07 -2997.42 -2770.52 -2508.41 -2212.18 -1883.17 -1522.81 -1132.74 -311.055 102.771 539.704 997.829 1475.18 1969.78 2479.42 3002 3535.22 4076.86 4623.59 5174.59 -512.376 -83.1868 369.682 844.282 1338.59 1850.47 2377.79 2918.27 3469.52 4029.07 4595.96 5165.48 -714.566 -270.129 198.657 689.719 1200.94 1730.23 2275.27 2833.73 3403.22 3981.41 4565.48 5153.63 58.6032 63.9371 69.2624 74.5193 79.6961 84.7734 89.7313 94.5515 99.2139 103.7 107.992 112.07 57.2906 63.0355 68.6939 74.3053 79.8292 85.2443 90.526 95.6514 100.599 105.347 109.876 114.166 56.1446 62.1687 68.1798 74.1224 79.9763 85.7122 91.303 96.7225 101.945 106.949 111.711 116.212 115.916 119.513 122.844 125.893 128.645 131.086 133.203 134.984 136.422 137.507 138.233 138.597 118.198 121.956 125.424 128.588 131.435 133.95 136.127 137.955 139.426 140.535 141.276 141.647 120.432 124.355 127.966 131.252 134.2 136.801 139.046 140.927 142.439 143.576 144.337 144.718 138.597 138.233 137.507 136.422 134.984 133.203 131.086 128.645 125.893 122.844 119.513 115.916 141.647 141.276 140.535 139.426 137.955 136.127 133.95 131.435 128.588 125.424 121.956 118.198 144.718 144.337 143.576 142.439 140.927 139.046 136.801 134.2 131.252 127.966 124.355 120.432 112.07 107.992 103.7 99.2139 94.5515 89.7313 84.7734 79.6961 74.5193 69.2624 63.9371 58.6032 114.166 109.876 105.347 100.599 95.6514 90.526 85.2443 79.8292 74.3053 68.6939 63.0355 57.2906 116.212 111.711 106.949 101.945 96.7225 91.303 85.7122 79.9763 74.1224 68.1798 62.1687 56.1446 
</DataArray>
<DataArray Name="Stress_22" format="ascii" type="Float64">
5180.21 4624.08 4078.93 3538.49 3006.26 2484.25 1974.92 1480.18 1002.31 543.297 105.068 -310.391 5170.86 4594.01 4028.65 3469.13 2917.61 2377.08 1849.63 1337.7 843.4 368.764 -84.0515 -513.182 5161.65 4563.45 3979.4 3399.98 2829.56 2270.41 1725.11 1195.87 685.093 194.88 -272.714 -715.603 -701.369 -1066.07 -1402.97 -1710.6 -1987.59 -2232.72 -2444.89 -2623.14 -2766.73 -2875 -2947.41 -2983.7 -916.753 -1293.01 -1640.44 -1957.47 -2242.81 -2495.2 -2713.55 -2896.99 -3044.65 -3155.97 -3230.46 -3267.76 -1131.93 -1519.95 -1878.04 -2204.73 -2498.62 -2758.44 -2983.2 -3171.95 -3323.87 -3438.34 -3514.93 -3553.32 -2983.7 -2947.41 -2875 -2766.73 -2623.14 -2444.89 -2232.72 -1987.59 -1710.6 -1402.97 -1066.07 -701.369 -3267.76 -3230.46 -3155.97 -3044.65 -2896.99 -2713.55 -2495.2 -2242.81 -1957.47 -1640.44 -1293.01 -916.753 -3553.32 -3514.93 -3438.34 -3323.87 -3171.95 -2983.2 -2758.44 -2498.62 -2204.73 -1878.04 -1519.95 -1131.93 -310.391 105.068 543.297 1002.31 1480.18 1974.92 2484.25 3006.26 3538.49 4078.93 4624.08 5180.21 -513.182 -84.0515 368.764 843.4 1337.7 1849.63 2377.08 2917.61 3469.13 4028.65 4594.01 5170.86 -715.603 -272.714 194.88 685.093 1195.87 1725.11 2270.41 2829.56 3399.98 3979.4 4563.45 5161.65 57.4908 62.7457 68.2512 73.656 78.987 84.2099 89.3003 94.236 98.9929 103.55 107.888 111.988 57.4616 63.0852 68.718 74.3032 79.7992 85.1886 90.4489 95.5561 100.489 105.228 109.752 114.04 57.4237 63.3722 69.1816 74.9509 80.627 86.1957 91.6342 96.9219 102.037 106.959 111.669 116.144 115.833 119.408 122.698 125.692 128.379 130.749 132.795 134.509 135.887 136.924 137.617 137.964 118.076 121.84 125.318 128.493 131.352 133.882 136.072 137.912 139.394 140.511 141.259 141.633 120.365 124.312 127.968 131.315 134.336 137.015 139.339 141.295 142.873 144.064 144.862 145.262 137.964 137.617 136.924 135.887 134.509 132.795 130.749 128.379 125.692 122.698 119.408 115.833 141.633 141.259 140.511 139.394 137.912 136.072 133.882 131.352 128.493 125.318 121.84 118.076 145.262 144.862 144.064 142.873 141.295 139.339 137.015 134.336 131.315 127.968 124.312 120.365 111.988 107.888 103.55 98.9929 94.236 89.3003 84.2099 78.987 73.656 68.2512 62.7457 57.4908 114.04 109.752 105.228 100.489 95.5561 90.4489 85.1886 79.7992 74.3032 68.718 63.0852 57.4616 116.144 111.669 106.959 102.037 96.9219 91.6342 86.1957 80.627 74.9509 69.1816 63.3722 57.4237 
</DataArray>
<DataArray Name="Stress_12" format="ascii" type="Float64">
-1.21502 0.759058 -0.631837 -1.05536 -1.63349 -2.3574 -3.19167 -4.03773 -4.92462 -5.77526 -6.53168 -7.19746 -0.625021 -0.307111 -0.531716 -0.480345 -0.412464 -0.351151 -0.269506 -0.207672 -0.124402 -0.0231882 0.0298614 0.114567 0.706252 -0.998948 0.347929 0.713086 1.26785 1.98961 2.77347 3.63631 4.48129 5.29859 6.06664 6.71555 -7.70699 -8.05468 -8.19654 -8.12281 -7.84364 -7.3382 -6.61011 -5.71441 -4.62109 -3.4101 -2.08333 -0.704565 0.178465 0.218194 0.274407 0.275431 0.314148 0.303697 0.260712 0.261913 0.20724 0.150115 0.0939888 0.0321181 7.22856 7.56979 7.72853 7.68332 7.42227 6.94114 6.29501 5.416 4.38956 3.2495 1.9815 0.67056 0.704565 2.08333 3.4101 4.62109 5.71441 6.61011 7.3382 7.84364 8.12281 8.19654 8.05468 7.70699 -0.0321181 -0.0939888 -0.150115 -0.20724 -0.261913 -0.260712 -0.303697 -0.314148 -0.275431 -0.274407 -0.218194 -0.178465 -0.67056 -1.9815 -3.2495 -4.38956 -5.416 -6.29501 -6.94114 -7.42227 -7.68332 -7.72853 -7.56979 -7.22856 7.19746 6.53168 5.77526 4.92462 4.03773 3.19167 2.3574 1.63349 1.05536 0.631837 -0.759058 1.21502 -0.114567 -0.0298614 0.0231882 0.124402 0.207672 0.269506 0.351151 0.412464 0.480345 0.531716 0.307111 0.625021 -6.71555 -6.06664 -5.29859 -4.48129 -3.63631 -2.77347 -1.98961 -1.26785 -0.713086 -0.347929 0.998948 -0.706252 -0.0717898 0.074188 0.112283 0.151726 0.172115 0.177125 0.168033 0.146737 0.116254 0.078997 0.0376002 -0.00474524 -0.0615367 -0.106086 -0.0926706 -0.0954543 -0.0907556 -0.085054 -0.077294 -0.0678912 -0.0576305 -0.0468917 -0.0355861 -0.0249046 -0.0693309 -0.171433 -0.224571 -0.258117 -0.275317 -0.274439 -0.258163 -0.228974 -0.189296 -0.142422 -0.0916099 -0.0396736 -0.0456916 -0.0825967 -0.113582 -0.137022 -0.151579 -0.156761 -0.152633 -0.139065 -0.117691 -0.0891908 -0.0557148 -0.0189111 -0.0147793 -0.00551938 0.00204257 0.00860814 0.0128467 0.0157124 0.0171052 0.0161376 0.0143175 0.0112138 0.00708027 0.00241884 0.0102955 0.0557249 0.0942242 0.124018 0.143996 0.153517 0.151821 0.140538 0.119843 0.0912509 0.0572781 0.0194667 0.0189111 0.0557148 0.0891908 0.117691 0.139065 0.152633 0.156761 0.151579 0.137022 0.113582 0.0825967 0.0456916 -0.00241884 -0.00708027 -0.0112138 -0.0143175 -0.0161376 -0.0171052 -0.0157124 -0.0128467 -0.00860814 -0.00204257 0.00551938 0.0147793 -0.0194667 -0.0572781 -0.0912509 -0.119843 -0.140538 -0.151821 -0.153517 -0.143996 -0.124018 -0.0942242 -0.0557249 -0.0102955 0.00474524 -0.0376002 -0.078997 -0.116254 -0.146737 -0.168033 -0.177125 -0.172115 -0.151726 -0.112283 -0.074188 0.0717898 0.0249046 0.0355861 0.0468917 0.0576305 0.0678912 0.077294 0.085054 0.0907556 0.0954543 0.0926706 0.106086 0.0615367 0.0396736 0.0916099 0.142422 0.189296 0.228974 0.258163 0.274439 0.275317 0.258117 0.224571 0.171433 0.0693309 
</DataArray>
<DataArray Name="Stress_13" format="ascii" type="Float64">
0 0 0 0 0 0 0 0 0 0 0 0 0 0 0 0 0 0 0 0 0 0 0 0 0 0 0 0 0 0 0 0 0 0 0 0 0 0 0 0 0 0 0 0 0 0 0 0 0 0 0 0 0 0 0 0 0 0 0 0 0 0 0 0 0 0 0 0 0 0 0 0 0 0 0 0 0 0 0 0 0 0 0 0 0 0 0 0 0 0 0 0 0 0 0 0 0 0 0 0 0 0 0 0 0 0 0 0 0 0 0 0 0 0 0 0 0 0 0 0 0 0 0 0 0 0 0 0 0 0 0 0 0 0 0 0 0 0 0 0 0 0 0 0 0 0 0 0 0 0 0 0 0 0 0 0 0 0 0 0 0 0 0 0 0 0 0 0 0 0 0 0 0 0 0 0 0 0 0 0 0 0 0 0 0 0 0 0 0 0 0 0 0 0 0 0 0 0 0 0 0 0 0 0 0 0 0 0 0 0 0 0 0 0 0 0 0 0 0 0 0 0 0 0 0 0 0 0 0 0 0 0 0 0 0 0 0 0 0 0 0 0 0 0 0 0 0 0 0 0 0 0 0 0 0 0 0 0 0 0 0 0 0 0 0 0 0 0 0 0 0 0 0 0 0 0 0 0 0 0 0 0 0 0 0 0 0 0 
</DataArray>
<DataArray Name="Stress_23" format="ascii" type="Float64">