<?xml version="1.0"?>
<VTKFile byte_order="LittleEndian" type="UnstructuredGrid" version="0.1">
<UnstructuredGrid>
<Piece NumberOfCells="288" NumberOfPoints="384">
<PointData>
<DataArray Name="Warping_X" format="ascii" type="Float64">
-0 -0 0 0 0 0 0 0 0 0 0 0 0 0 -0 0 0 0 0 0 0 0 0 0 0 0 0 0 0 0 0 0 0 0 0 0 0 0 0 0 0 0 0 0 0 0 0 0 0 0 0 0 0 0 0 0 0 0 0 0 0 0 0 0 0 0 0 0 0 0 0 0 0 0 0 0 0 0 0 0 0 0 0 0 0 0 0 0 0 0 0 0 0 0 0 0 0 0 0 0 0 0 0 0 0 0 0 0 0 0 0 0 0 0 0 0 0 0 0 0 0 0 0 0 0 0 0 0 0 0 0 0 0 0 0 0 0 0 0 0 0 0 0 0 0 0 0 0 0 0 0 0 0 0 0 0 0 0 0 0 0 0 0 0 0 0 0 0 0 0 0 0 0 0 0 0 0 0 0 0 0 0 0 0 0 0 0 0 0 0 0 0 0 0 0 0 0 0 0 0 0 0 0 0 0 0 0 0 -0 0 0 0 0 0 0 0 0 0 0 0 0 0 0 0 0 0 0 0 0 0 0 0 0 0 0 0 0 0 0 0 0 0 0 0 0 0 0 0 0 0 0 0 0 0 0 0 0 0 0 0 0 0 0 0 0 0 0 0 0 0 0 0 0 0 0 0 0 0 0 0 0 0 0 0 0 0 0 0 0 0 0 0 0 0 0 0 0 0 0 0 0 0 0 0 0 0 0 0 0 0 0 0 0 0 0 0 -0 0 0 0 0 0 0 0 0 0 0 0 0 0 0 0 0 0 0 0 0 0 0 0 0 0 0 0 0 0 0 0 0 0 0 0 0 0 0 0 0 0 0 0 0 0 0 0 0 0 0 0 0 0 0 0 0 0 0 0 0 0 0 0 0 0 0 0 
</DataArray>
<DataArray Name="Warping_Y" format="ascii" type="Float64">
0 -0 0 0 0 0 0 0 0 0 0 0 0 0 -0 0 0 0 0 0 0 0 0 0 0 0 0 0 0 0 0 0 0 0 0 0 0 0 0 0 0 0 0 0 0 0 0 0 0 0 0 0 -0 0 0 0 0 0 0 0 0 0 0 0 0 0 0 0 0 0 0 0 0 0 0 0 0 0 0 0 0 0 0 0 0 0 0 0 0 0 0 0 0 0 0 0 0 0 0 0 -0 0 0 0 0 0 0 0 0 0 0 0 0 0 0 0 0 0 0 0 0 0 0 0 0 0 0 0 0 0 0 0 0 0 0 0 0 0 0 0 0 0 0 0 0 0 0 0 0 0 0 0 0 0 0 0 0 0 0 0 0 0 0 0 0 0 0 0 0 0 0 0 0 0 0 0 0 0 0 0 0 0 0 0 0 0 0 0 0 0 0 0 0 0 0 0 0 0 0 0 0 0 0 0 0 0 0 0 0 0 0 0 0 0 0 0 0 0 0 0 -0 0 0 0 0 0 0 0 0 0 0 0 0 0 0 0 0 0 0 0 0 0 0 0 0 0 0 0 0 0 0 0 0 0 0 0 -0 0 0 0 0 0 0 0 0 0 0 0 0 0 0 0 0 0 0 0 0 0 0 0 0 0 0 0 0 0 0 0 0 0 0 0 0 0 0 0 0 0 0 0 0 0 0 0 -0 0 0 0 0 0 0 0 0 0 0 0 0 0 0 0 0 0 0 0 0 0 0 0 0 0 0 0 0 0 0 0 0 0 0 0 0 0 0 0 0 0 0 0 0 0 0 0 0 0 0 0 0 0 0 0 0 0 0 0 0 0 0 0 0 0 0 0 0 0 0 0 0 0 0 0 0 0 0 0 
</DataArray>
<DataArray Name="Warping_Z" format="ascii" type="Float64">
0 0 0 0 0 0 0 0 0 0 0 0 0 0 0 0 0 0 0 0 0 0 0 0 0 0 0 0 0 0 0 0 0 0 0 0 0 0 0 0 0 0 0 0 0 0 0 0 0 0 0 0 0 0 0 0 0 0 0 0 0 0 0 0 0 0 0 0 0 0 0 0 0 0 0 0 0 0 0 0 0 0 0 0 0 0 0 0 0 0 0 0 0 0 0 0 0 0 0 0 0 0 0 0 0 0 0 0 0 0 0 0 0 0 0 0 0 0 0 0 0 0 0 0 0 0 0 0 0 0 0 0 0 0 0 0 0 0 0 0 0 0 0 0 0 0 0 0 0 0 0 0 0 0 0 0 0 0 0 0 0 0 0 0 0 0 0 0 0 0 0 0 0 0 0 0 0 0 0 0 0 0 0 0 0 0 0 0 0 0 0 0 0 0 0 0 0 0 0 0 0 0 0 0 0 0 0 0 0 0 0 0 0 0 0 0 0 0 0 0 0 0 0 0 0 0 0 0 0 0 0 0 0 0 0 0 0 0 0 0 0 0 0 0 0 0 0 0 0 0 0 0 0 0 0 0 0 0 0 0 0 0 0 0 0 0 0 0 0 0 0 0 0 0 0 0 0 0 0 0 0 0 0 0 0 0 0 0 0 0 0 0 0 0 0 0 0 0 0 0 0 0 0 0 0 0 0 0 0 0 0 0 0 0 0 0 0 0 0 0 0 0 0 0 0 0 0 0 0 0 0 0 0 0 0 0 0 0 0 0 0 0 0 0 0 0 0 0 0 0 0 0 0 0 0 0 0 0 0 0 0 0 0 0 0 0 0 0 0 0 0 0 0 0 0 0 0 0 0 0 0 0 0 0 
</DataArray>
</PointData>
<CellData>
<DataArray Name="MaterialId" format="ascii" type="Float64">
1 1 1 1 1 1 1 1 1 1 1 1 1 1 1 1 1 1 1 1 1 1 1 1 1 1 1 1 1 1 1 1 1 1 1 1 1 1 1 1 1 1 1 1 1 1 1 1 1 1 1 1 1 1 1 1 1 1 1 1 1 1 1 1 1 1 1 1 1 1 1 1 1 1 1 1 1 1 1 1 1 1 1 1 1 1 1 1 1 1 1 1 1 1 1 1 1 1 1 1 1 1 1 1 1 1 1 1 1 1 1 1 1 1 1 1 1 1 1 1 1 1 1 1 1 1 1 1 1 1 1 1 1 1 1 1 1 1 1 1 1 1 1 1 2 2 2 2 2 2 2 2 2 2 2 2 2 2 2 2 2 2 2 2 2 2 2 2 2 2 2 2 2 2 2 2 2 2 2 2 2 2 2 2 2 2 2 2 2 2 2 2 2 2 2 2 2 2 2 2 2 2 2 2 2 2 2 2 2 2 2 2 2 2 2 2 2 2 2 2 2 2 2 2 2 2 2 2 2 2 2 2 2 2 2 2 2 2 2 2 2 2 2 2 2 2 2 2 2 2 2 2 2 2 2 2 2 2 2 2 2 2 2 2 2 2 2 2 2 2 2 2 2 2 2 2 2 2 2 2 2 2 2 2 2 2 2 2 
</DataArray>
<DataArray Name="FiberAngle" format="ascii" type="Float64">
0 0 0 0 0 0 0 0 0 0 0 0 0 0 0 0 0 0 0 0 0 0 0 0 0 0 0 0 0 0 0 0 0 0 0 0 0 0 0 0 0 0 0 0 0 0 0 0 0 0 0 0 0 0 0 0 0 0 0 0 0 0 0 0 0 0 0 0 0 0 0 0 0 0 0 0 0 0 0 0 0 0 0 0 0 0 0 0 0 0 0 0 0 0 0 0 0 0 0 0 0 0 0 0 0 0 0 0 0 0 0 0 0 0 0 0 0 0 0 0 0 0 0 0 0 0 0 0 0 0 0 0 0 0 0 0 0 0 0 0 0 0 0 0 0 0 0 0 0 0 0 0 0 0 0 0 0 0 0 0 0 0 0 0 0 0 0 0 0 0 0 0 0 0 0 0 0 0 0 0 0 0 0 0 0 0 0 0 0 0 0 0 0 0 0 0 0 0 0 0 0 0 0 0 0 0 0 0 0 0 0 0 0 0 0 0 0 0 0 0 0 0 0 0 0 0 0 0 0 0 0 0 0 0 0 0 0 0 0 0 0 0 0 0 0 0 0 0 0 0 0 0 0 0 0 0 0 0 0 0 0 0 0 0 0 0 0 0 0 0 0 0 0 0 0 0 0 0 0 0 0 0 0 0 0 0 0 0 
</DataArray>
<DataArray Name="Strain_11" format="ascii" type="Float64">
0 0 0 0 0 0 0 0 0 0 0 0 0 0 0 0 0 0 0 0 0 0 0 0 0 0 0 0 0 0 0 0 0 0 0 0 0 0 0 0 0 0 0 0 0 0 0 0 0 0 0 0 0 0 0 0 0 0 0 0 0 0 0 0 0 0 0 0 0 0 0 0 0 0 0 0 0 0 0 0 0 0 0 0 0 0 0 0 0 0 0 0 0 0 0 0 0 0 0 0 0 0 0 0 0 0 0 0 0 0 0 0 0 0 0 0 0 0 0 0 0 0 0 0 0 0 0 0 0 0 0 0 0 0 0 0 0 0 0 0 0 0 0 0 0 0 0 0 0 0 0 0 0 0 0 0 0 0 0 0 0 0 0 0 0 0 0 0 0 0 0 0 0 0 0 0 0 0 0 0 0 0 0 0 0 0 0 0 0 0 0 0 0 0 0 0 0 0 0 0 0 0 0 0 0 0 0 0 0 0 0 0 0 0 0 0 0 0 0 0 0 0 0 0 0 0 0 0 0 0 0 0 0 0 0 0 0 0 0 0 0 0 0 0 0 0 0 0 0 0 0 0 0 0 0 0 0 0 0 0 0 0 0 0 0 0 0 0 0 0 0 0 0 0 0 0 0 0 0 0 0 0 0 0 0 0 0 0 
</DataArray>
<DataArray Name="Strain_22" format="ascii" type="Float64">
0 0 0 0 0 0 0 0 0 0 0 0 0 0 0 0 0 0 0 0 0 0 0 0 0 0 0 0 0 0 0 0 0 0 0 0 0 0 0 0 0 0 0 0 0 0 0 0 0 0 0 0 0 0 0 0 0 0 0 0 0 0 0 0 0 0 0 0 0 0 0 0 0 0 0 0 0 0 0 0 0 0 0 0 0 0 0 0 0 0 0 0 0 0 0 0 0 0 0 0 0 0 0 0 0 0 0 0 0 0 0 0 0 0 0 0 0 0 0 0 0 0 0 0 0 0 0 0 0 0 0 0 0 0 0 0 0 0 0 0 0 0 0 0 0 0 0 0 0 0 0 0 0 0 0 0 0 0 0 0 0 0 0 0 0 0 0 0 0 0 0 0 0 0 0 0 0 0 0 0 0 0 0 0 0 0 0 0 0 0 0 0 0 0 0 0 0 0 0 0 0 0 0 0 0 0 0 0 0 0 0 0 0 0 0 0 0 0 0 0 0 0 0 0 0 0 0 0 0 0 0 0 0 0 0 0 0 0 0 0 0 0 0 0 0 0 0 0 0 0 0 0 0 0 0 0 0 0 0 0 0 0 0 0 0 0 0 0 0 0 0 0 0 0 0 0 0 0 0 0 0 0 0 0 0 0 0 0 
</DataArray>
<DataArray Name="Strain_12" format="ascii" type="Float64">
0 0 0 0 0 0 0 0 0 0 0 0 0 0 0 0 0 0 0 0 0 0 0 0 0 0 0 0 0 0 0 0 0 0 0 0 0 0 0 0 0 0 0 0 0 0 0 0 0 0 0 0 0 0 0 0 0 0 0 0 0 0 0 0 0 0 0 0 0 0 0 0 0 0 0 0 0 0 0 0 0 0 0 0 0 0 0 0 0 0 0 0 0 0 0 0 0 0 0 0 0 0 0 0 0 0 0 0 0 0 0 0 0 0 0 0 0 0 0 0 0 0 0 0 0 0 0 0 0 0 0 0 0 0 0 0 0 0 0 0 0 0 0 0 0 0 0 0 0 0 0 0 0 0 0 0 0 0 0 0 0 0 0 0 0 0 0 0 0 0 0 0 0 0 0 0 0 0 0 0 0 0 0 0 0 0 0 0 0 0 0 0 0 0 0 0 0 0 0 0 0 0 0 0 0 0 0 0 0 0 0 0 0 0 0 0 0 0 0 0 0 0 0 0 0 0 0 0 0 0 0 0 0 0 0 0 0 0 0 0 0 0 0 0 0 0 0 0 0 0 0 0 0 0 0 0 0 0 0 0 0 0 0 0 0 0 0 0 0 0 0 0 0 0 0 0 0 0 0 0 0 0 0 0 0 0 0 0 
</DataArray>
<DataArray Name="Strain_13" format="ascii" type="Float64">
23231.4 23743.2 23580.6 23278.2 22873.6 22370.8 21772.2 21080.3 20298.2 19429.4 18477.1 17445.9 23051.8 22949.9 22755.6 22461.6 22071.1 21585.8 21008.2 20340.7 19586.1 18747.6 17828.8 16833.7 22891.6 22212.8 21986.7 21700.4 21322.8 20854.1 20296 19651.1 18922.2 18112.1 17224.3 16263 16339.8 15163.8 13922.7 12622.2 11267.9 9864.78 8419.85 6938.53 5427.79 3893.49 2342.78 782.061 15766.5 14631.7 13434.3 12179.3 10872.3 9518.85 8124.18 6695.06 5237.33 3757.02 2260.58 754.605 15232.1 14135.8 12978.8 11766.5 10503.9 9196.01 7848.9 6468.02 5059.78 3629.95 2183.95 728.998 -782.061 -2342.78 -3893.49 -5427.79 -6938.53 -8419.85 -9864.78 -11267.9 -12622.2 -13922.7 -15163.8 -16339.8 -754.605 -2260.58 -3757.02 -5237.33 -6695.06 -8124.18 -9518.85 -10872.3 -12179.3 -13434.3 -14631.7 -15766.5 -728.998 -2183.95 -3629.95 -5059.79 -6468.02 -7848.9 -9196.01 -10503.9 -11766.5 -12978.8 -14135.8 -15232.1 -17445.9 -18477.1 -19429.4 -20298.2 -21080.3 -21772.2 -22370.8 -22873.6 -23278.2 -23580.6 -23743.2 -23231.4 -16833.7 -17828.8 -18747.6 -19586.1 -20340.7 -21008.2 -21585.8 -22071.1 -22461.6 -22755.6 -22949.9 -23051.8 -16263 -17224.3 -18112.1 -18922.2 -19651.1 -20296 -20854.1 -21322.8 -21700.4 -21986.7 -22212.8 -22891.6 23231 23742.2 23581.7 23277.1 22873.3 22372.2 21773.7 21080.1 20295.5 19431 18479.5 17446.6 23051.2 22950.2 22755.9 22460.4 22070.5 21586.9 21009.7 20340.5 19584.7 18748.5 17830.9 16834.4 22890.4 22214.3 21987.7 21697.7 21322 20855.1 20298.4 19651.2 18919.8 18113.4 17227.3 16263.4 16340.2 15164.1 13921.1 12620.9 11269.8 9865.82 8420.1 6937.93 5427.59 3892.69 2341.75 782.363 15766.1 14631.6 13434.3 12178.9 10872.5 9519.62 8125.04 6695.38 5236.61 3755.81 2260.18 754.805 15230.4 14135.4 12980.7 11766.3 10502.6 9196.63 7850.52 6469.5 5058.4 3627.69 2184.25 729.848 -782.363 -2341.75 -3892.69 -5427.59 -6937.93 -8420.1 -9865.82 -11269.8 -12620.9 -13921.1 -15164.1 -16340.2 -754.805 -2260.18 -3755.81 -5236.61 -6695.38 -8125.04 -9519.62 -10872.5 -12178.9 -13434.3 -14631.6 -15766.1 -729.848 -2184.25 -3627.69 -5058.4 -6469.5 -7850.52 -9196.63 -10502.6 -11766.3 -12980.7 -14135.4 -15230.4 -17446.6 -18479.5 -19431 -20295.5 -21080.1 -21773.7 -22372.2 -22873.3 -23277.1 -23581.7 -23742.2 -23231 -16834.4 -17830.9 -18748.5 -19584.7 -20340.5 -21009.7 -21586.9 -22070.5 -22460.4 -22755.9 -22950.2 -23051.2 -16263.4 -17227.3 -18113.4 -18919.8 -19651.2 -20298.4 -20855.1 -21322 -21697.7 -21987.7 -22214.3 -22890.4 
</DataArray>
<DataArray Name="Strain_23" format="ascii" type="Float64">
-28056.9 -26960.2 -25430.6 -23898.8 -22387.9 -20906.7 -19461.7 -18058.6 -16704.3 -15403.8 -14162.7 -12986.8 -27697.1 -27002.1 -25567.1 -24088.7 -22631.5 -21202.3 -19807.7 -18454.2 -17147.2 -15892.2 -14694.8 -13560 -28122.5 -27120.4 -25692.8 -24266.9 -22858.4 -21477.6 -20130.5 -18822.6 -17560 -16347.7 -15190.7 -14094.4 -11880.7 -10849.4 -9897.13 -9028.32 -8246.21 -7554.3 -6955.76 -6452.9 -6048.09 -5742.92 -5538.87 -5436.51 -12492.8 -11497.7 -10578.9 -9740.46 -8985.79 -8318.32 -7740.66 -7255.45 -6864.81 -6570.5 -6373.61 -6274.81 -13063.5 -12102.2 -11214.5 -10404.3 -9675.42 -9030.47 -8472.37 -8003.68 -7626.26 -7341.97 -7151.69 -7056.27 -5436.51 -5538.87 -5742.92 -6048.09 -6452.9 -6955.76 -7554.3 -8246.21 -9028.32 -9897.13 -10849.4 -11880.7 -6274.81 -6373.61 -6570.5 -6864.81 -7255.45 -7740.66 -8318.32 -8985.79 -9740.46 -10578.9 -11497.7 -12492.8 -7056.27 -7151.69 -7341.97 -7626.26 -8003.68 -8472.37 -9030.47 -9675.42 -10404.3 -11214.5 -12102.2 -13063.5 -12986.8 -14162.7 -15403.8 -16704.3 -18058.6 -19461.7 -20906.7 -22387.9 -23898.8 -25430.6 -26960.2 -28056.9 -13560 -14694.8 -15892.2 -17147.2 -18454.2 -19807.7 -21202.3 -22631.5 -24088.7 -25567.1 -27002.1 -27697.1 -14094.4 -15190.7 -16347.7 -17560 -18822.6 -20130.5 -21477.6 -22858.4 -24266.9 -25692.8 -27120.4 -28122.5 -28056.6 -26961.3 -25431.4 -23899 -22388.5 -20906.4 -19460.7 -18056.7 -16705.6 -15405.4 -14162.4 -12986.3 -27696.9 -27002.5 -25568.3 -24089.4 -22631.2 -21201.5 -19806.9 -18454 -17147.6 -15892.2 -14694.9 -13560.4 -28121.7 -27120.1 -25695.1 -24268.3 -22856.9 -21476 -20129.9 -18823.9 -17560.2 -16345.8 -15191.1 -14096.1 -11879.9 -10847 -9895.54 -9031.02 -8246.39 -7552.8 -6954.33 -6453.19 -6049.27 -5741.77 -5539.85 -5436.86 -12492.1 -11495.6 -10578 -9741.85 -8985.98 -8316.8 -7739.6 -7256.01 -6865.99 -6570.14 -6373.3 -6275.42 -13063.1 -12099.2 -11213.1 -10406.7 -9675.32 -9028.09 -8471.37 -8004.53 -7629.01 -7340.97 -7150.16 -7057.43 -5436.86 -5539.85 -5741.77 -6049.27 -6453.19 -6954.33 -7552.8 -8246.39 -9031.02 -9895.54 -10847 -11879.9 -6275.42 -6373.3 -6570.14 -6865.99 -7256.01 -7739.6 -8316.8 -8985.98 -9741.85 -10578 -11495.6 -12492.1 -7057.43 -7150.16 -7340.97 -7629.01 -8004.53 -8471.37 -9028.09 -9675.32 -10406.7 -11213.1 -12099.2 -13063.1 -12986.3 -14162.4 -15405.4 -16705.6 -18056.7 -19460.7 -20906.4 -22388.5 -23899 -25431.4 -26961.3 -28056.6 -13560.4 -14694.9 -15892.2 -17147.6 -18454 -19806.9 -21201.5 -22631.2 -24089.4 -25568.3 -27002.5 -27696.9 -14096.1 -15191.1 -16345.8 -17560.2 -18823.9 -20129.9 -21476 -22856.9 -24268.3 -25695.1 -27120.1 -28121.7 
</DataArray>
<DataArray Name="Strain_33" format="ascii" type="Float64">
0 0 0 0 0 0 0 0 0 0 0 0 0 0 0 0 0 0 0 0 0 0 0 0 0 0 0 0 0 0 0 0 0 0 0 0 0 0 0 0 0 0 0 0 0 0 0 0 0 0 0 0 0 0 0 0 0 0 0 0 0 0 0 0 0 0 0 0 0 0 0 0 0 0 0 0 0 0 0 0 0 0 0 0 0 0 0 0 0 0 0 0 0 0 0 0 0 0 0 0 0 0 0 0 0 0 0 0 0 0 0 0 0 0 0 0 0 0 0 0 0 0 0 0 0 0 0 0 0 0 0 0 0 0 0 0 0 0 0 0 0 0 0 0 0 0 0 0 0 0 0 0 0 0 0 0 0 0 0 0 0 0 0 0 0 0 0 0 0 0 0 0 0 0 0 0 0 0 0 0 0 0 0 0 0 0 0 0 0 0 0 0 0 0 0 0 0 0 0 0 0 0 0 0 0 0 0 0 0 0 0 0 0 0 0 0 0 0 0 0 0 0 0 0 0 0 0 0 0 0 0 0 0 0 0 0 0 0 0 0 0 0 0 0 0 0 0 0 0 0 0 0 0 0 0 0 0 0 0 0 0 0 0 0 0 0 0 0 0 0 0 0 0 0 0 0 0 0 0 0 0 0 0 0 0 0 0 0 
</DataArray>
<DataArray Name="Stress_11" format="ascii" type="Float64">
0 0 0 0 0 0 0 0 0 0 0 0 0 0 0 0 0 0 0 0 0 0 0 0 0 0 0 0 0 0 0 0 0 0 0 0 0 0 0 0 0 0 0 0 0 0 0 0 0 0 0 0 0 0 0 0 0 0 0 0 0 0 0 0 0 0 0 0 0 0 0 0 0 0 0 0 0 0 0 0 0 0 0 0 0 0 0 0 0 0 0 0 0 0 0 0 0 0 0 0 0 0 0 0 0 0 0 0 0 0 0 0 0 0 0 0 0 0 0 0 0 0 0 0 0 0 0 0 0 0 0 0 0 0 0 0 0 0 0 0 0 0 0 0 0 0 0 0 0 0 0 0 0 0 0 0 0 0 0 0 0 0 0 0 0 0 0 0 0 0 0 0 0 0 0 0 0 0 0 0 0 0 0 0 0 0 0 0 0 0 0 0 0 0 0 0 0 0 0 0 0 0 0 0 0 0 0 0 0 0 0 0 0 0 0 0 0 0 0 0 0 0 0 0 0 0 0 0 0 0 0 0 0 0 0 0 0 0 0 0 0 0 0 0 0 0 0 0 0 0 0 0 0 0 0 0 0 0 0 0 0 0 0 0 0 0 0 0 0 0 0 0 0 0 0 0 0 0 0 0 0 0 0 0 0 0 0 0 
</DataArray>
<DataArray Name="Stress_22" format="ascii" type="Float64">
0 0 0 0 0 0 0 0 0 0 0 0 0 0 0 0 0 0 0 0 0 0 0 0 0 0 0 0 0 0 0 0 0 0 0 0 0 0 0 0 0 0 0 0 0 0 0 0 0 0 0 0 0 0 0 0 0 0 0 0 0 0 0 0 0 0 0 0 0 0 0 0 0 0 0 0 0 0 0 0 0 0 0 0 0 0 0 0 0 0 0 0 0 0 0 0 0 0 0 0 0 0 0 0 0 0 0 0 0 0 0 0 0 0 0 0 0 0 0 0 0 0 0 0 0 0 0 0 0 0 0 0 0 0 0 0 0 0 0 0 0 0 0 0 0 0 0 0 0 0 0 0 0 0 0 0 0 0 0 0 0 0 0 0 0 0 0 0 0 0 0 0 0 0 0 0 0 0 0 0 0 0 0 0 0 0 0 0 0 0 0 0 0 0 0 0 0 0 0 0 0 0 0 0 0 0 0 0 0 0 0 0 0 0 0 0 0 0 0 0 0 0 0 0 0 0 0 0 0 0 0 0 0 0 0 0 0 0 0 0 0 0 0 0 0 0 0 0 0 0 0 0 0 0 0 0 0 0 0 0 0 0 0 0 0 0 0 0 0 0 0 0 0 0 0 0 0 0 0 0 0 0 0 0 0 0 0 0 
</DataArray>
<DataArray Name="Stress_12" format="ascii" type="Float64">
0 0 0 0 0 0 0 0 0 0 0 0 0 0 0 0 0 0 0 0 0 0 0 0 0 0 0 0 0 0 0 0 0 0 0 0 0 0 0 0 0 0 0 0 0 0 0 0 0 0 0 0 0 0 0 0 0 0 0 0 0 0 0 0 0 0 0 0 0 0 0 0 0 0 0 0 0 0 0 0 0 0 0 0 0 0 0 0 0 0 0 0 0 0 0 0 0 0 0 0 0 0 0 0 0 0 0 0 0 0 0 0 0 0 0 0 0 0 0 0 0 0 0 0 0 0 0 0 0 0 0 0 0 0 0 0 0 0 0 0 0 0 0 0 0 0 0 0 0 0 0 0 0 0 0 0 0 0 0 0 0 0 0 0 0 0 0 0 0 0 0 0 0 0 0 0 0 0 0 0 0 0 0 0 0 0 0 0 0 0 0 0 0 0 0 0 0 0 0 0 0 0 0 0 0 0 0 0 0 0 0 0 0 0 0 0 0 0 0 0 0 0 0 0 0 0 0 0 0 0 0 0 0 0 0 0 0 0 0 0 0 0 0 0 0 0 0 0 0 0 0 0 0 0 0 0 0 0 0 0 0 0 0 0 0 0 0 0 0 0 0 0 0 0 0 0 0 0 0 0 0 0 0 0 0 0 0 0 
</DataArray>
<DataArray Name="Stress_13" format="ascii" type="Float64">
967981 989308 982533 969935 953074 932122 907183 878353 845765 809564 769887 726916 960501 956254 948156 935908 919635 899417 875348 847537 816092 781155 742872 701409 953824 925539 916119 904192 888458 868930 845675 818802 788432 754675 717685 677632 680829 631831 580116 525931 469499 411036 350830 289108 226160 162230 97616.5 32586.1 656942 609659 559767 507476 453018 396622 338510 278963 218224 156544 94191.4 31442.1 634676 588997 540786 490275 437666 383170 327040 269503 210826 151249 90998.6 30375.2 -32586.1 -97616.5 -162230 -226160 -289108 -350830 -411036 -469499 -525931 -580116 -631831 -680829 -31442.1 -94191.4 -156544 -218224 -278963 -338510 -396622 -453018 -507476 -559767 -609659 -656942 -30375.2 -90998.6 -151249 -210826 -269503 -327040 -383170 -437666 -490275 -540786 -588997 -634676 -726916 -769887 -809564 -845765 -878353 -907183 -932122 -953074 -969935 -982533 -989308 -967981 -701409 -742872 -781155 -816092 -847537 -875348 -899417 -919635 -935908 -948156 -956254 -960501 -677632 -717685 -754675 -788432 -818802 -845675 -868930 -888458 -904192 -916119 -925539 -953824 9.67967 9.89267 9.8258 9.69886 9.53062 9.32181 9.07245 8.78345 8.45652 8.0963 7.69987 7.26949 9.60475 9.56267 9.48171 9.35859 9.19612 8.99462 8.75412 8.47529 8.16034 7.81195 7.42962 7.0144 9.53775 9.25603 9.16161 9.04078 8.88423 8.68971 8.45774 8.18806 7.88333 7.54733 7.17809 6.77648 6.80846 6.31843 5.80051 5.25877 4.69577 4.11079 3.5084 2.89083 2.26151 1.62197 0.975738 0.325987 6.56927 6.09654 5.59767 5.0746 4.53025 3.96654 3.38546 2.78977 2.18194 1.56493 0.941749 0.314505 6.34604 5.88981 5.40867 4.90266 4.37611 3.83196 3.27108 2.69565 2.10768 1.51155 0.910112 0.304106 -0.325987 -0.975738 -1.62197 -2.26151 -2.89083 -3.5084 -4.11079 -4.69577 -5.25877 -5.80051 -6.31843 -6.80846 -0.314505 -0.941749 -1.56493 -2.18194 -2.78977 -3.38546 -3.96654 -4.53025 -5.0746 -5.59767 -6.09654 -6.56927 -0.304106 -0.910112 -1.51155 -2.10768 -2.69565 -3.27108 -3.83196 -4.37611 -4.90266 -5.40867 -5.88981 -6.34604 -7.26949 -7.69987 -8.0963 -8.45652 -8.78345 -9.07245 -9.32181 -9.53062 -9.69886 -9.8258 -9.89267 -9.67967 -7.0144 -7.42962 -7.81195 -8.16034 -8.47529 -8.75412 -8.99462 -9.19612 -9.35859 -9.48171 -9.56267 -9.60475 -6.77648 -7.17809 -7.54733 -7.88333 -8.18806 -8.45774 -8.68971 -8.88423 -9.04078 -9.16161 -9.25603 -9.53775 
</DataArray>
<DataArray Name="Stress_23" format="ascii" type="Float64">
-1.16905e+06 -1.12335e+06 -1.05962e+06 -995792 -932838 -871118 -810912 -752449 -696017 -641832 -590117 -541119 -1.15406e+06 -1.1251e+06 -1.0653e+06 -1.0037e+06 -942986 -883437 -825326 -768930 -714471 -662180 -612289 -565005 -1.17178e+06 -1.13002e+06 -1.07054e+06 -1.01113e+06 -952441 -894908 -838777 -784282 -731673 -681161 -632950 -587272 -495031 -452061 -412384 -376183 -343595 -314765 -289826 -268873 -252006 -239290 -230788 -226523 -520539 -479076 -440793 -405856 -374411 -346600 -322530 -302313 -286036 -273773 -265569 -261453 -544316 -504263 -467273 -433515 -403146 -376272 -353018 -333489 -317763 -305918 -297990 -294013 -226523 -230788 -239290 -252006 -268873 -289826 -314765 -343595 -376183 -412384 -452061 -495031 -261453 -265569 -273773 -286036 -302313 -322530 -346600 -374411 -405856 -440793 -479076 -520539 -294013 -297990 -305918 -317763 -333489 -353018 -376272 -403146 -433515 -467273 -504263 -544316 -541119 -590117 -641832 -696017 -752449 -810912 -871118 -932838 -995792 -1.05962e+06 -1.12335e+06 -1.16905e+06 -565005 -612289 -662180 -714471 -768930 -825326 -883437 -942986 -1.0037e+06 -1.0653e+06 -1.1251e+06 -1.15406e+06 -587272 -632950 -681161 -731673 -784282 -838777 -894908 -952441 -1.01113e+06 -1.07054e+06 -1.13002e+06 -1.17178e+06 -11.6904 -11.2339 -10.5965 -9.95801 -9.32863 -8.71108 -8.10868 -7.5237 -6.96071 -6.41896 -5.90105 -5.41102 -11.5405 -11.2511 -10.6535 -10.0373 -9.42973 -8.83401 -8.25294 -7.68923 -7.14488 -6.62181 -6.12293 -5.6502 -11.7175 -11.3001 -10.7064 -10.1119 -9.5238 -8.94841 -8.38752 -7.84336 -7.31682 -6.81081 -6.32966 -5.87343 -4.94998 -4.5196 -4.12317 -3.76296 -3.43602 -3.14702 -2.89766 -2.68885 -2.52055 -2.39242 -2.30829 -2.26537 -5.20508 -4.78986 -4.40752 -4.05914 -3.74419 -3.46536 -3.22486 -3.02336 -2.86085 -2.73758 -2.65556 -2.61478 -5.44299 -5.04139 -4.67215 -4.33615 -4.03141 -3.76173 -3.52977 -3.33525 -3.17878 -3.05876 -2.97926 -2.94062 -2.26537 -2.30829 -2.39242 -2.52055 -2.68885 -2.89766 -3.14702 -3.43602 -3.76296 -4.12317 -4.5196 -4.94998 -2.61478 -2.65556 -2.73758 -2.86085 -3.02336 -3.22486 -3.46536 -3.74419 -4.05914 -4.40752 -4.78986 -5.20508 -2.94062 -2.97926 -3.05876 -3.17878 -3.33525 -3.52977 -3.76173 -4.03141 -4.33615 -4.67215 -5.04139 -5.44299 -5.41102 -5.90105 -6.41896 -6.96071 -7.5237 -8.10868 -8.71108 -9.32863 -9.95801 -10.5965 -11.2339 -11.6904 -5.6502 -6.12293 -6.62181 -7.14488 -7.68923 -8.25294 -8.83401 -9.42973 -10.0373 -10.6535 -11.2511 -11.5405 -5.87343 -6.32966 -6.81081 -7.31682 -7.84336 -8.38752 -8.94841 -9.5238 -10.1119 -10.7064 -11.3001 -11.7175 
</DataArray>
<DataArray Name="Stress_33" format="ascii" type="Float64">
0 0 0 0 0 0 0 0 0 0 0 0 0 0 0 0 0 0 0 0 0 0 0 0 0 0 0 0 0 0 0 0 0 0 0 0 0 0 0 0 0 0 0 0 0 0 0 0 0 0 0 0 0 0 0 0 0 0 0 0 0 0 0 0 0 0 0 0 0 0 0 0 0 0 0 0 0 0 0 0 0 0 0 0 0 0 0 0 0 0 0 0 0 0 0 0 0 0 0 0 0 0 0 0 0 0 0 0 0 0 0 0 0 0 0 0 0 0 0 0 0 0 0 0 0 0 0 0 0 0 0 0 0 0 0 0 0 0 0 0 0 0 0 0 0 0 0 0 0 0 0 0 0 0 0 0 0 0 0 0 0 0 0 0 0 0 0 0 0 0 0 0 0 0 0 0 0 0 0 0 0 0 0 0 0 0 0 0 0 0 0 0 0 0 0 0 0 0 0 0 0 0 0 0 0 0 0 0 0 0 0 0 0 0 0 0 0 0 0 0 0 0 0 0 0 0 0 0 0 0 0 0 0 0 0 0 0 0 0 0 0 0 0 0 0 0 0 0 0 0 0 0 0 0 0 0 0 0 0 0 0 0 0 0 0 0 0 0 0 0 0 0 0 0 0 0 0 0 0 0 0 0 0 0 0 0 0 0 
</DataArray>
</CellData>
<Points>
<DataArray NumberOfComponents="3" format="ascii" type="Float64">
0 0.09 0 -0.06364 0.06364 0 -0.005886 0.089807 0 -0.011747 0.08923 0 -0.017558 0.088271 0 -0.023294 0.086933 0 -0.02893 0.085224 0 -0.034442 0.083149 0 -0.039806 0.080719 0 -0.045 0.077942 0 -0.050001 0.074832 0 -0.054789 0.071402 0 -0.059341 0.067666 0 -0.065997 0.065997 0 0 0.093333 0 -0.006104 0.093133 0 -0.012182 0.092535 0 -0.018208 0.09154 0 -0.024156 0.090153 0 -0.030001 0.08838 0 -0.035717 0.086229 0 -0.04128 0.083708 0 -0.046667 0.080829 0 -0.051853 0.077604 0 -0.056818 0.074046 0 -0.061539 0.070172 0 -0.068354 0.068354 0 0 0.096667 0 -0.006322 0.09646 0 -0.012618 0.09584 0 -0.018859 0.094809 0 -0.025019 0.093373 0 -0.031072 0.091537 0 -0.036993 0.089308 0 -0.042755 0.086698 0 -0.048333 0.083716 0 -0.053705 0.080375 0 -0.058847 0.076691 0 -0.063737 0.072678 0 -0.070711 0.070711 0 0 0.1 0 -0.00654 0.099786 0 -0.013053 0.099144 0 -0.019509 0.098079 0 -0.025882 0.096593 0 -0.032144 0.094693 0 -0.038268 0.092388 0 -0.044229 0.089687 0 -0.05 0.086603 0 -0.055557 0.083147 0 -0.060876 0.079335 0 -0.065935 0.075184 0 -0.09 0 0 -0.067666 0.059341 0 -0.071402 0.054789 0 -0.074832 0.050001 0 -0.077942 0.045 0 -0.080719 0.039806 0 -0.083149 0.034442 0 -0.085224 0.02893 0 -0.086933 0.023294 0 -0.088271 0.017558 0 -0.08923 0.011747 0 -0.089807 0.005886 0 -0.093333 0 0 -0.070172 0.061539 0 -0.074046 0.056818 0 -0.077604 0.051853 0 -0.080829 0.046667 0 -0.083708 0.04128 0 -0.086229 0.035717 0 -0.08838 0.030001 0 -0.090153 0.024156 0 -0.09154 0.018208 0 -0.092535 0.012182 0 -0.093133 0.006104 0 -0.096667 0 0 -0.072678 0.063737 0 -0.076691 0.058847 0 -0.080375 0.053705 0 -0.083716 0.048333 0 -0.086698 0.042755 0 -0.089308 0.036993 0 -0.091537 0.031072 0 -0.093373 0.025019 0 -0.094809 0.018859 0 -0.09584 0.012618 0 -0.09646 0.006322 0 -0.1 0 0 -0.075184 0.065935 0 -0.079335 0.060876 0 -0.083147 0.055557 0 -0.086603 0.05 0 -0.089687 0.044229 0 -0.092388 0.038268 0 -0.094693 0.032144 0 -0.096593 0.025882 0 -0.098079 0.019509 0 -0.099144 0.013053 0 -0.099786 0.00654 0 -0.06364 -0.06364 0 -0.089807 -0.005886 0 -0.08923 -0.011747 0 -0.088271 -0.017558 0 -0.086933 -0.023294 0 -0.085224 -0.02893 0 -0.083149 -0.034442 0 -0.080719 -0.039806 0 -0.077942 -0.045 0 -0.074832 -0.050001 0 -0.071402 -0.054789 0 -0.067666 -0.059341 0 -0.065997 -0.065997 0 -0.093133 -0.006104 0 -0.092535 -0.012182 0 -0.09154 -0.018208 0 -0.090153 -0.024156 0 -0.08838 -0.030001 0 -0.086229 -0.035717 0 -0.083708 -0.04128 0 -0.080829 -0.046667 0 -0.077604 -0.051853 0 -0.074046 -0.056818 0 -0.070172 -0.061539 0 -0.068354 -0.068354 0 -0.09646 -0.006322 0 -0.09584 -0.012618 0 -0.094809 -0.018859 0 -0.093373 -0.025019 0 -0.091537 -0.031072 0 -0.089308 -0.036993 0 -0.086698 -0.042755 0 -0.083716 -0.048333 0 -0.080375 -0.053705 0 -0.076691 -0.058847 0 -0.072678 -0.063737 0 -0.070711 -0.070711 0 -0.099786 -0.00654 0 -0.099144 -0.013053 0 -0.098079 -0.019509 0 -0.096593 -0.025882 0 -0.094693 -0.032144 0 -0.092388 -0.038268 0 -0.089687 -0.044229 0 -0.086603 -0.05 0 -0.083147 -0.055557 0 -0.079335 -0.060876 0 -0.075184 -0.065935 0 0 -0.09 0 -0.059341 -0.067666 0 -0.054789 -0.071402 0 -0.050001 -0.074832 0 -0.045 -0.077942 0 -0.039806 -0.080719 0 -0.034442 -0.083149 0 -0.02893 -0.085224 0 -0.023294 -0.086933 0 -0.017558 -0.088271 0 -0.011747 -0.08923 0 -0.005886 -0.089807 0 0 -0.093333 0 -0.061539 -0.070172 0 -0.056818 -0.074046 0 -0.051853 -0.077604 0 -0.046667 -0.080829 0 -0.04128 -0.083708 0 -0.035717 -0.086229 0 -0.030001 -0.08838 0 -0.024156 -0.090153 0 -0.018208 -0.09154 0 -0.012182 -0.092535 0 -0.006104 -0.093133 0 0 -0.096667 0 -0.063737 -0.072678 0 -0.058847 -0.076691 0 -0.053705 -0.080375 0 -0.048333 -0.083716 0 -0.042755 -0.086698 0 -0.036993 -0.089308 0 -0.031072 -0.091537 0 -0.025019 -0.093373 0 -0.018859 -0.094809 0 -0.012618 -0.09584 0 -0.006322 -0.09646 0 0 -0.1 0 -0.065935 -0.075184 0 -0.060876 -0.079335 0 -0.055557 -0.083147 0 -0.05 -0.086603 0 -0.044229 -0.089687 0 -0.038268 -0.092388 0 -0.032144 -0.094693 0 -0.025882 -0.096593 0 -0.019509 -0.098079 0 -0.013053 -0.099144 0 -0.00654 -0.099786 0 0.06364 -0.06364 0 0.005886 -0.089807 0 0.011747 -0.08923 0 0.017558 -0.088271 0 0.023294 -0.086933 0 0.02893 -0.085224 0 0.034442 -0.083149 0 0.039806 -0.080719 0 0.045 -0.077942 0 0.050001 -0.074832 0 0.054789 -0.071402 0 0.059341 -0.067666 0 0.065997 -0.065997 0 0.006104 -0.093133 0 0.012182 -0.092535 0 0.018208 -0.09154 0 0.024156 -0.090153 0 0.030001 -0.08838 0 0.035717 -0.086229 0 0.04128 -0.083708 0 0.046667 -0.080829 0 0.051853 -0.077604 0 0.056818 -0.074046 0 0.061539 -0.070172 0 0.068354 -0.068354 0 0.006322 -0.09646 0 0.012618 -0.09584 0 0.018859 -0.094809 0 0.025019 -0.093373 0 0.031072 -0.091537 0 0.036993 -0.089308 0 0.042755 -0.086698 0 0.048333 -0.083716 0 0.053705 -0.080375 0 0.058847 -0.076691 0 0.063737 -0.072678 0 0.070711 -0.070711 0 0.00654 -0.099786 0 0.013053 -0.099144 0 0.019509 -0.098079 0 0.025882 -0.096593 0 0.032144 -0.094693 0 0.038268 -0.092388 0 0.044229 -0.089687 0 0.05 -0.086603 0 0.055557 -0.083147 0 0.060876 -0.079335 0 0.065935 -0.075184 0 0.09 0 0 0.067666 -0.059341 0 0.071402 -0.054789 0 0.074832 -0.050001 0 0.077942 -0.045 0 0.080719 -0.039806 0 0.083149 -0.034442 0 0.085224 -0.02893 0 0.086933 -0.023294 0 0.088271 -0.017558 0 0.08923 -0.011747 0 0.089807 -0.005886 0 0.093333 0 0 0.070172 -0.061539 0 0.074046 -0.056818 0 0.077604 -0.051853 0 0.080829 -0.046667 0 0.083708 -0.04128 0 0.086229 -0.035717 0 0.08838 -0.030001 0 0.090153 -0.024156 0 0.09154 -0.018208 0 0.092535 -0.012182 0 0.093133 -0.006104 0 0.096667 0 0 0.072678 -0.063737 0 0.076691 -0.058847 0 0.080375 -0.053705 0 0.083716 -0.048333 0 0.086698 -0.042755 0 0.089308 -0.036993 0 0.091537 -0.031072 0 0.093373 -0.025019 0 0.094809 -0.018859 0 0.09584 -0.012618 0 0.09646 -0.006322 0 0.1 0 0 0.075184 -0.065935 0 0.079335 -0.060876 0 0.083147 -0.055557 0 0.086603 -0.05 0 0.089687 -0.044229 0 0.092388 -0.038268 0 0.094693 -0.032144 0 0.096593 -0.025882 0 0.098079 -0.019509 0 0.099144 -0.013053 0 0.099786 -0.00654 0 0.06364 0.06364 0 0.089807 0.005886 0 0.08923 0.011747 0 0.088271 0.017558 0 0.086933 0.023294 0 0.085224 0.02893 0 0.083149 0.034442 0 0.080719 0.039806 0 0.077942 0.045 0 0.074832 0.050001 0 0.071402 0.054789 0 0.067666 0.059341 0 0.065997 0.065997 0 0.093133 0.006104 0 0.092535 0.012182 0 0.09154 0.018208 0 0.090153 0.024156 0 0.08838 0.030001 0 0.086229 0.035717 0 0.083708 0.04128 0 0.080829 0.046667 0 0.077604 0.051853 0 0.074046 0.056818 0 0.070172 0.061539 0 0.068354 0.068354 0 0.09646 0.006322 0 0.09584 0.012618 0 0.094809 0.018859 0 0.093373 0.025019 0 0.091537 0.031072 0 0.089308 0.036993 0 0.086698 0.042755 0 0.083716 0.048333 0 0.080375 0.053705 0 0.076691 0.058847 0 0.072678 0.063737 0 0.070711 0.070711 0 0.099786 0.00654 0 0.099144 0.013053 0 0.098079 0.019509 0 0.096593 0.025882 0 0.094693 0.032144 0 0.092388 0.038268 0 0.089687 0.044229 0 0.086603 0.05 0 0.083147 0.055557 0 0.079335 0.060876 0 0.075184 0.065935 0 0.059341 0.067666 0 0.054789 0.071402 0 0.050001 0.074832 0 0.045 0.077942 0 0.039806 0.080719 0 0.034442 0.083149 0 0.02893 0.085224 0 0.023294 0.086933 0 0.017558 0.088271 0 0.011747 0.08923 0 0.005886 0.089807 0 0.061539 0.070172 0 0.056818 0.074046 0 0.051853 0.077604 0 0.046667 0.080829 0 0.04128 0.083708 0 0.035717 0.086229 0 0.030001 0.08838 0 0.024156 0.090153 0 0.018208 0.09154 0 0.012182 0.092535 0 0.006104 0.093133 0 0.063737 0.072678 0 0.058847 0.076691 0 0.053705 0.080375 0 0.048333 0.083716 0 0.042755 0.086698 0 0.036993 0.089308 0 0.031072 0.091537 0 0.025019 0.093373 0 0.018859 0.094809 0 0.012618 0.09584 0 0.006322 0.09646 0 0.065935 0.075184 0 0.060876 0.079335 0 0.055557 0.083147 0 0.05 0.086603 0 0.044229 0.089687 0 0.038268 0.092388 0 0.032144 0.094693 0 0.025882 0.096593 0 0.019509 0.098079 0 0.013053 0.099144 0 0.00654 0.099786 0 
</DataArray>
</Points>
<Cells>
<DataArray Name="connectivity" format="ascii" type="Int64">