<?xml version="1.0"?>
<VTKFile byte_order="LittleEndian" type="UnstructuredGrid" version="0.1">
<UnstructuredGrid>
<Piece NumberOfCells="288" NumberOfPoints="384">
<PointData>
<DataArray Name="Warping_X" format="ascii" type="Float64">
-3.24693 -3.26535 -3.49883 -3.69909 -3.84781 -3.94575 -3.99485 -3.99753 -3.95721 -3.87771 -3.76364 -3.61997 -3.45199 -3.36312 -3.45795 -3.71841 -3.92337 -4.07274 -4.16771 -4.21028 -4.20326 -4.15016 -4.05534 -3.92364 -3.76043 -3.57158 -3.46078 -3.67811 -3.94684 -4.1561 -4.30574 -4.39724 -4.43268 -4.41508 -4.34844 -4.23726 -4.08685 -3.90312 -3.69223 -3.55834 -3.90722 -4.18395 -4.39703 -4.54676 -4.63425 -4.66188 -4.63303 -4.55188 -4.42346 -4.25336 -4.04792 -3.81391 -1.52546 -3.06583 -2.85936 -2.65163 -2.44835 -2.25483 -2.07611 -1.91665 -1.7805 -1.67097 -1.59079 -1.5419 -1.44449 -3.1413 -2.91251 -2.68292 -2.45871 -2.24559 -2.04898 -1.87378 -1.72427 -1.60408 -1.51612 -1.46251 -1.35456 -3.21552 -2.96325 -2.71075 -2.46453 -2.23088 -2.01556 -1.82379 -1.6603 -1.52896 -1.43283 -1.37425 -1.25579 -3.28848 -3.01163 -2.7351 -2.46588 -2.21072 -1.97578 -1.76677 -1.58863 -1.44558 -1.34099 -1.27721 -3.26535 -1.5419 -1.59079 -1.67097 -1.7805 -1.91665 -2.07611 -2.25483 -2.44835 -2.65163 -2.85936 -3.06583 -3.36312 -1.46251 -1.51612 -1.60408 -1.72427 -1.87378 -2.04898 -2.24559 -2.45871 -2.68292 -2.91251 -3.1413 -3.46078 -1.37425 -1.43283 -1.52896 -1.6603 -1.82379 -2.01556 -2.23088 -2.46453 -2.71075 -2.96325 -3.21552 -3.55834 -1.27721 -1.34099 -1.44558 -1.58863 -1.76677 -1.97578 -2.21072 -2.46588 -2.7351 -3.01163 -3.28848 -3.24693 -3.45199 -3.61997 -3.76364 -3.87771 -3.95721 -3.99753 -3.99485 -3.94575 -3.84781 -3.69909 -3.49883 -3.45795 -3.57158 -3.76043 -3.92364 -4.05534 -4.15016 -4.20326 -4.21028 -4.16771 -4.07274 -3.92337 -3.71841 -3.67811 -3.69223 -3.90312 -4.08685 -4.23726 -4.34844 -4.41508 -4.43268 -4.39724 -4.30574 -4.1561 -3.94684 -3.90722 -3.81391 -4.04792 -4.25336 -4.42346 -4.55188 -4.63303 -4.66188 -4.63425 -4.54676 -4.39703 -4.18395 3.23091 -2.92701 -2.55718 -2.13757 -1.66994 -1.15737 -0.603749 -0.0143919 0.604866 1.24687 1.90414 2.56829 3.31439 -3.13767 -2.76143 -2.33064 -1.84692 -1.31346 -0.734718 -0.116138 0.535684 1.21311 1.90813 2.61158 3.39803 -3.35608 -2.9736 -2.53108 -2.03077 -1.4759 -0.871087 -0.222607 0.462578 1.17653 1.91015 2.65401 3.48147 -3.58345 -3.19425 -2.73986 -2.22224 -1.64517 -1.01382 -0.334435 0.385138 1.13646 1.90987 2.69515 8.0641 3.883 4.51555 5.11982 5.68716 6.20947 6.67886 7.0887 7.43264 7.70581 7.90383 8.02384 8.46052 4.00686 4.67925 5.32224 5.92623 6.48259 6.983 7.41989 7.78683 8.07819 8.28955 8.41758 8.865 4.1319 4.84525 5.5277 6.16943 6.76069 7.29267 7.75754 8.1479 8.4579 8.68292 8.81931 9.27744 4.25783 5.0131 5.73625 6.41653 7.04357 7.60815 8.10143 8.51595 8.8452 9.08399 9.22892 3.23091 8.02384 7.90383 7.70581 7.43264 7.0887 6.67886 6.20947 5.68716 5.11982 4.51555 3.883 3.31439 8.41758 8.28955 8.07819 7.78683 7.41989 6.983 6.48259 5.92623 5.32224 4.67925 4.00686 3.39803 8.81931 8.68292 8.4579 8.1479 7.75754 7.29267 6.76069 6.16943 5.5277 4.84525 4.1319 3.48147 9.22892 9.08399 8.8452 8.51595 8.10143 7.60815 7.04357 6.41653 5.73625 5.0131 4.25783 2.56829 1.90414 1.24687 0.604866 -0.014392 -0.603749 -1.15737 -1.66994 -2.13757 -2.55718 -2.92701 2.61158 1.90813 1.21311 0.535684 -0.116138 -0.734718 -1.31346 -1.84692 -2.33064 -2.76143 -3.13767 2.65401 1.91015 1.17653 0.462578 -0.222607 -0.871087 -1.4759 -2.03077 -2.53108 -2.9736 -3.35608 2.69515 1.90987 1.13646 0.385138 -0.334435 -1.01382 -1.64517 -2.22224 -2.73986 -3.19425 -3.58345 
</DataArray>
<DataArray Name="Warping_Y" format="ascii" type="Float64">
3.63863 -0.284393 3.26631 2.8815 2.49195 2.10408 1.72422 1.3582 1.01152 0.688996 0.39496 0.132913 -0.0941837 -0.398008 3.79641 3.39379 2.97923 2.56015 2.14361 1.73628 1.34455 0.974211 0.630473 0.318011 0.0405274 -0.19885 -0.520448 3.95421 3.52018 3.07458 2.62493 2.17868 1.743 1.32459 0.929854 0.564362 0.232902 -0.0603786 -0.312267 -0.651652 4.11208 3.64532 3.16773 2.68643 2.20936 1.74429 1.29852 0.878588 0.490605 0.139701 -0.16975 -0.434373 2.22128e-09 -0.436385 -0.549751 -0.624857 -0.662933 -0.665908 -0.636396 -0.577765 -0.493877 -0.389188 -0.2685 -0.136983 2.10073e-09 -0.555583 -0.67115 -0.745205 -0.779008 -0.774689 -0.735181 -0.664054 -0.56557 -0.444529 -0.306157 -0.15604 1.98015e-09 -0.683532 -0.80111 -0.87367 -0.902712 -0.890517 -0.8402 -0.755735 -0.641696 -0.503272 -0.346127 -0.176253 1.8596e-09 -0.820168 -0.939496 -1.01027 -1.03402 -1.01325 -0.951418 -0.852753 -0.722207 -0.565355 -0.388328 -0.197606 0.284393 0.136983 0.2685 0.389188 0.493878 0.577765 0.636396 0.665908 0.662933 0.624857 0.549751 0.436385 0.398008 0.15604 0.306157 0.444529 0.56557 0.664054 0.735181 0.774689 0.779008 0.745205 0.67115 0.555583 0.520448 0.176253 0.346127 0.503272 0.641696 0.755735 0.8402 0.890517 0.902712 0.87367 0.80111 0.683532 0.651652 0.197606 0.388328 0.565355 0.722207 0.852753 0.951418 1.01325 1.03402 1.01027 0.939496 0.820168 -3.63863 0.0941837 -0.132913 -0.39496 -0.688996 -1.01152 -1.3582 -1.72422 -2.10408 -2.49195 -2.8815 -3.26631 -3.79641 0.19885 -0.0405274 -0.318011 -0.630473 -0.974211 -1.34455 -1.73628 -2.14361 -2.56015 -2.97923 -3.39379 -3.95421 0.312267 0.0603786 -0.232902 -0.564362 -0.929854 -1.32459 -1.743 -2.17868 -2.62493 -3.07458 -3.52018 -4.11208 0.434373 0.16975 -0.139701 -0.490605 -0.878588 -1.29852 -1.74429 -2.20936 -2.68643 -3.16773 -3.64532 -5.85118 -4.00625 -4.36424 -4.70669 -5.02469 -5.31025 -5.55553 -5.75365 -5.89824 -5.98408 -6.0069 -5.96324 -6.22863 -4.19142 -4.57988 -4.95163 -5.29772 -5.60927 -5.87795 -6.09606 -6.25699 -6.35477 -6.38477 -6.3435 -6.61457 -4.37975 -4.7991 -5.20114 -5.57612 -5.91444 -6.20711 -6.44595 -6.62346 -6.73352 -6.77112 -6.73227 -7.00937 -4.57061 -5.0216 -5.45502 -5.85982 -6.22572 -6.54312 -6.80318 -6.99803 -7.1208 -7.16609 -7.12989 -6.29348e-09 -5.66971 -5.41934 -5.10139 -4.71889 -4.27562 -3.77655 -3.22765 -2.63576 -2.00855 -1.35428 -0.681745 -5.61112e-09 -6.03912 -5.77541 -5.43911 -5.03327 -4.56187 -4.0305 -3.44546 -2.81411 -2.14478 -1.4463 -0.728111 -4.93452e-09 -6.41689 -6.13961 -5.78447 -5.3547 -4.85481 -4.29033 -3.66827 -2.99666 -2.28425 -1.54055 -0.775547 -4.2529e-09 -6.80337 -6.5122 -6.13792 -5.68375 -5.15445 -4.55618 -3.89641 -3.18351 -2.4269 -1.63688 -0.824094 5.85118 0.681745 1.35428 2.00855 2.63576 3.22765 3.77655 4.27562 4.71889 5.10139 5.41934 5.66971 6.22863 0.728111 1.4463 2.14478 2.81411 3.44546 4.0305 4.56187 5.03327 5.43911 5.77541 6.03912 6.61457 0.775547 1.54055 2.28425 2.99666 3.66827 4.29033 4.85481 5.3547 5.78447 6.13961 6.41689 7.00937 0.824094 1.63688 2.4269 3.18351 3.89641 4.55618 5.15445 5.68375 6.13792 6.5122 6.80337 5.96324 6.0069 5.98408 5.89824 5.75365 5.55553 5.31025 5.02469 4.70669 4.36424 4.00625 6.3435 6.38477 6.35477 6.25699 6.09606 5.87795 5.60927 5.29772 4.95163 4.57988 4.19142 6.73227 6.77112 6.73352 6.62346 6.44595 6.20711 5.91444 5.57612 5.20114 4.7991 4.37975 7.12989 7.16609 7.1208 6.99803 6.80318 6.54312 6.22572 5.85982 5.45502 5.0216 4.57061 
</DataArray>
<DataArray Name="Warping_Z" format="ascii" type="Float64">
0 0 0 0 0 0 0 0 0 0 0 0 0 0 0 0 0 0 0 0 0 0 0 0 0 0 0 0 0 0 0 0 0 0 0 0 0 0 0 0 0 0 0 0 0 0 0 0 0 0 0 0 0 0 0 0 0 0 0 0 0 0 0 0 0 0 0 0 0 0 0 0 0 0 0 0 0 0 0 0 0 0 0 0 0 0 0 0 0 0 0 0 0 0 0 0 0 0 0 0 0 0 0 0 0 0 0 0 0 0 0 0 0 0 0 0 0 0 0 0 0 0 0 0 0 0 0 0 0 0 0 0 0 0 0 0 0 0 0 0 0 0 0 0 0 0 0 0 0 0 0 0 0 0 0 0 0 0 0 0 0 0 0 0 0 0 0 0 0 0 0 0 0 0 0 0 0 0 0 0 0 0 0 0 0 0 0 0 0 0 0 0 0 0 0 0 0 0 0 0 0 0 0 0 0 0 0 0 0 0 0 0 0 0 0 0 0 0 0 0 0 0 0 0 0 0 0 0 0 0 0 0 0 0 0 0 0 0 0 0 0 0 0 0 0 0 0 0 0 0 0 0 0 0 0 0 0 0 0 0 0 0 0 0 0 0 0 0 0 0 0 0 0 0 0 0 0 0 0 0 0 0 0 0 0 0 0 0 0 0 0 0 0 0 0 0 0 0 0 0 0 0 0 0 0 0 0 0 0 0 0 0 0 0 0 0 0 0 0 0 0 0 0 0 0 0 0 0 0 0 0 0 0 0 0 0 0 0 0 0 0 0 0 0 0 0 0 0 0 0 0 0 0 0 0 0 0 0 0 0 0 0 0 0 0 0 0 0 0 0 0 0 0 0 0 0 0 0 0 0 0 0 0 0 
</DataArray>
</PointData>
<CellData>
<DataArray Name="MaterialId" format="ascii" type="Float64">
1 1 1 1 1 1 1 1 1 1 1 1 1 1 1 1 1 1 1 1 1 1 1 1 1 1 1 1 1 1 1 1 1 1 1 1 1 1 1 1 1 1 1 1 1 1 1 1 1 1 1 1 1 1 1 1 1 1 1 1 1 1 1 1 1 1 1 1 1 1 1 1 1 1 1 1 1 1 1 1 1 1 1 1 1 1 1 1 1 1 1 1 1 1 1 1 1 1 1 1 1 1 1 1 1 1 1 1 1 1 1 1 1 1 1 1 1 1 1 1 1 1 1 1 1 1 1 1 1 1 1 1 1 1 1 1 1 1 1 1 1 1 1 1 2 2 2 2 2 2 2 2 2 2 2 2 2 2 2 2 2 2 2 2 2 2 2 2 2 2 2 2 2 2 2 2 2 2 2 2 2 2 2 2 2 2 2 2 2 2 2 2 2 2 2 2 2 2 2 2 2 2 2 2 2 2 2 2 2 2 2 2 2 2 2 2 2 2 2 2 2 2 2 2 2 2 2 2 2 2 2 2 2 2 2 2 2 2 2 2 2 2 2 2 2 2 2 2 2 2 2 2 2 2 2 2 2 2 2 2 2 2 2 2 2 2 2 2 2 2 2 2 2 2 2 2 2 2 2 2 2 2 2 2 2 2 2 2 
</DataArray>
<DataArray Name="FiberAngle" format="ascii" type="Float64">
0 0 0 0 0 0 0 0 0 0 0 0 0 0 0 0 0 0 0 0 0 0 0 0 0 0 0 0 0 0 0 0 0 0 0 0 0 0 0 0 0 0 0 0 0 0 0 0 0 0 0 0 0 0 0 0 0 0 0 0 0 0 0 0 0 0 0 0 0 0 0 0 0 0 0 0 0 0 0 0 0 0 0 0 0 0 0 0 0 0 0 0 0 0 0 0 0 0 0 0 0 0 0 0 0 0 0 0 0 0 0 0 0 0 0 0 0 0 0 0 0 0 0 0 0 0 0 0 0 0 0 0 0 0 0 0 0 0 0 0 0 0 0 0 0 0 0 0 0 0 0 0 0 0 0 0 0 0 0 0 0 0 0 0 0 0 0 0 0 0 0 0 0 0 0 0 0 0 0 0 0 0 0 0 0 0 0 0 0 0 0 0 0 0 0 0 0 0 0 0 0 0 0 0 0 0 0 0 0 0 0 0 0 0 0 0 0 0 0 0 0 0 0 0 0 0 0 0 0 0 0 0 0 0 0 0 0 0 0 0 0 0 0 0 0 0 0 0 0 0 0 0 0 0 0 0 0 0 0 0 0 0 0 0 0 0 0 0 0 0 0 0 0 0 0 0 0 0 0 0 0 0 0 0 0 0 0 0 
</DataArray>
<DataArray Name="Strain_11" format="ascii" type="Float64">
44.8031 40.1408 35.4951 30.8939 26.365 21.9282 17.6022 13.4054 9.35656 5.47225 1.76932 -1.73626 44.745 39.9324 35.1165 30.3676 25.69 21.1031 16.6281 12.2838 8.08843 4.06042 0.216558 -3.42638 44.6519 39.6907 34.7349 29.832 25.0019 20.2644 15.6391 11.1462 6.80503 2.63351 -1.35029 -5.12876 -5.03035 -8.09848 -10.929 -13.5094 -15.83 -17.8813 -19.6545 -21.143 -22.3411 -23.2438 -23.8472 -24.1495 -6.85272 -10.0478 -12.9977 -15.6904 -18.1143 -20.2576 -22.1129 -23.6712 -24.9257 -25.8718 -26.5043 -26.8215 -8.68544 -12.0044 -15.0719 -17.8735 -20.3969 -22.6305 -24.5646 -26.1901 -27.4994 -28.4867 -29.1475 -29.4787 -24.1495 -23.8472 -23.2438 -22.3411 -21.143 -19.6545 -17.8813 -15.83 -13.5094 -10.929 -8.09848 -5.03035 -26.8215 -26.5043 -25.8718 -24.9257 -23.6712 -22.1129 -20.2576 -18.1143 -15.6904 -12.9977 -10.0478 -6.85272 -29.4787 -29.1475 -28.4867 -27.4994 -26.1901 -24.5646 -22.6305 -20.3969 -17.8735 -15.0719 -12.0044 -8.68544 -1.73626 1.76932 5.47225 9.35656 13.4054 17.6022 21.9282 26.365 30.8939 35.4951 40.1408 44.8031 -3.42638 0.216558 4.06042 8.08843 12.2838 16.6281 21.1031 25.69 30.3676 35.1165 39.9324 44.745 -5.12876 -1.35029 2.63351 6.80503 11.1462 15.6391 20.2644 25.0019 29.832 34.7349 39.6907 44.6519 51.2635 55.791 60.2254 64.6122 68.9293 73.1655 77.3063 81.3377 85.2445 89.0125 92.6258 96.0685 49.4815 54.3968 59.2093 63.983 68.6823 73.2884 77.7796 82.1369 86.3415 90.375 94.2205 97.8614 47.9152 53.0726 58.2684 63.3956 68.4491 73.3977 78.2167 82.8814 87.3688 91.6585 95.7313 99.5698 99.3253 102.38 105.217 107.821 110.178 112.275 114.097 115.634 116.876 117.815 118.444 118.76 101.282 104.469 107.408 110.088 112.499 114.628 116.47 118.016 119.26 120.197 120.824 121.138 103.159 106.485 109.538 112.306 114.784 116.963 118.839 120.407 121.665 122.61 123.241 123.557 118.76 118.444 117.815 116.876 115.634 114.097 112.275 110.178 107.821 105.217 102.38 99.3253 121.138 120.824 120.197 119.26 118.016 116.47 114.628 112.499 110.088 107.408 104.469 101.282 123.557 123.241 122.61 121.665 120.407 118.839 116.963 114.784 112.306 109.538 106.485 103.159 96.0685 92.6258 89.0125 85.2445 81.3377 77.3063 73.1655 68.9293 64.6122 60.2254 55.791 51.2635 97.8614 94.2205 90.375 86.3415 82.1369 77.7796 73.2884 68.6823 63.983 59.2093 54.3968 49.4815 99.5698 95.7313 91.6585 87.3688 82.8814 78.2167 73.3977 68.4491 63.3956 58.2684 53.0726 47.9152 
</DataArray>
<DataArray Name="Strain_22" format="ascii" type="Float64">
44.907 40.1687 35.547 30.9631 26.4481 22.0182 17.6949 13.4938 9.43454 5.53392 1.80823 -1.7254 44.8206 39.9019 35.1082 30.3595 25.6778 21.09 16.613 12.2681 8.07297 4.04468 0.201872 -3.43986 44.7452 39.639 34.6821 29.7614 24.918 20.1714 15.5439 11.0541 6.72239 2.56672 -1.39571 -5.14719 -5.0523 -8.157 -11.0262 -13.6473 -16.0082 -18.0984 -19.9081 -21.4289 -22.6543 -23.5784 -24.1966 -24.5065 -6.86458 -10.0574 -13.0055 -15.6955 -18.1164 -20.2581 -22.1105 -23.6668 -24.9196 -25.864 -26.496 -26.8124 -8.67218 -11.9562 -14.9856 -17.7483 -20.2327 -22.4282 -24.327 -25.9211 -27.2039 -28.1701 -28.8166 -29.1407 -24.5065 -24.1966 -23.5784 -22.6543 -21.4289 -19.9081 -18.0984 -16.0082 -13.6473 -11.0262 -8.157 -5.0523 -26.8124 -26.496 -25.864 -24.9196 -23.6668 -22.1105 -20.2581 -18.1164 -15.6955 -13.0055 -10.0574 -6.86458 -29.1407 -28.8166 -28.1701 -27.2039 -25.9211 -24.327 -22.4282 -20.2327 -17.7483 -14.9856 -11.9562 -8.67218 -1.7254 1.80823 5.53392 9.43454 13.4938 17.6949 22.0182 26.4481 30.9631 35.547 40.1687 44.907 -3.43986 0.201872 4.04468 8.07297 12.2681 16.613 21.09 25.6778 30.3595 35.1082 39.9019 44.8206 -5.14719 -1.39571 2.56672 6.72239 11.0541 15.5439 20.1714 24.918 29.7614 34.6821 39.639 44.7452 49.3665 53.7675 58.509 63.147 67.7258 72.2094 76.5752 80.8029 84.8703 88.7587 92.4513 95.9315 49.7492 54.4837 59.2523 63.9805 68.633 73.1959 77.6509 81.9773 86.1579 90.1755 94.0118 97.6509 50.0662 55.1198 59.9707 64.8046 69.5566 74.2217 78.7824 83.2234 87.5278 91.6794 95.6616 99.4562 99.1863 102.203 104.971 107.482 109.729 111.706 113.408 114.83 115.972 116.829 117.402 117.688 101.077 104.274 107.229 109.928 112.359 114.512 116.376 117.942 119.204 120.156 120.794 121.112 103.046 106.413 109.541 112.413 115.012 117.323 119.332 121.027 122.397 123.432 124.126 124.475 117.688 117.402 116.829 115.972 114.83 113.408 111.706 109.729 107.482 104.971 102.203 99.1863 121.112 120.794 120.156 119.204 117.942 116.376 114.512 112.359 109.928 107.229 104.274 101.077 124.475 124.126 123.432 122.397 121.027 119.332 117.323 115.012 112.413 109.541 106.413 103.046 95.9315 92.4513 88.7587 84.8703 80.8029 76.5752 72.2094 67.7258 63.147 58.509 53.7675 49.3665 97.6509 94.0118 90.1755 86.1579 81.9773 77.6509 73.1959 68.633 63.9805 59.2523 54.4837 49.7492 99.4562 95.6616 91.6794 87.5278 83.2234 78.7824 74.2217 69.5566 64.8046 59.9707 55.1198 50.0662 
</DataArray>
<DataArray Name="Strain_12" format="ascii" type="Float64">
-0.0369896 0.0165013 -0.0274226 -0.0429888 -0.0633159 -0.087891 -0.115568 -0.143439 -0.17218 -0.199486 -0.223595 -0.244484 -0.0206675 -0.0110749 -0.0169237 -0.0151738 -0.0127698 -0.0105474 -0.00773308 -0.00546735 -0.0025996 0.000729248 0.00267828 0.00544674 0.0197986 -0.0258307 0.0166212 0.0308823 0.0508263 0.075662 0.102269 0.130962 0.158874 0.185591 0.21035 0.231056 -0.260208 -0.270532 -0.274149 -0.270769 -0.260674 -0.243289 -0.218787 -0.188777 -0.15254 -0.112437 -0.0686772 -0.0232064 0.00756102 0.00891628 0.0106269 0.0107124 0.0117431 0.0112954 0.00984693 0.00954202 0.00760631 0.0055401 0.00345154 0.00117565 0.247137 0.257494 0.261759 0.259286 0.249758 0.233074 0.210816 0.181194 0.146698 0.108423 0.0661288 0.0223562 0.0232064 0.0686772 0.112437 0.15254 0.188777 0.218787 0.243289 0.260674 0.270769 0.274149 0.270532 0.260208 -0.00117565 -0.00345154 -0.0055401 -0.00760631 -0.00954202 -0.00984693 -0.0112954 -0.0117431 -0.0107124 -0.0106269 -0.00891628 -0.00756102 -0.0223562 -0.0661288 -0.108423 -0.146698 -0.181194 -0.210816 -0.233074 -0.249758 -0.259286 -0.261759 -0.257494 -0.247137 0.244484 0.223595 0.199486 0.17218 0.143439 0.115568 0.087891 0.0633159 0.0429888 0.0274226 -0.0165013 0.0369896 -0.00544674 -0.00267828 -0.000729248 0.0025996 0.00546735 0.00773308 0.0105474 0.0127698 0.0151738 0.0169237 0.0110749 0.0206675 -0.231056 -0.21035 -0.185591 -0.158874 -0.130962 -0.102269 -0.075662 -0.0508263 -0.0308823 -0.0166212 0.0258307 -0.0197986 -0.223013 0.250824 0.383395 0.51795 0.587006 0.604118 0.573207 0.501051 0.397511 0.27098 0.130503 -0.013337 -0.203015 -0.359239 -0.312067 -0.321798 -0.306193 -0.287187 -0.261164 -0.229744 -0.19532 -0.159147 -0.121308 -0.0853217 -0.252302 -0.575085 -0.760341 -0.874906 -0.933704 -0.931403 -0.87695 -0.778521 -0.644649 -0.486322 -0.314455 -0.138758 -0.152388 -0.277815 -0.383131 -0.462832 -0.512482 -0.530305 -0.516462 -0.47076 -0.398401 -0.301998 -0.188633 -0.0640451 -0.0512504 -0.0201416 0.00545819 0.0274784 0.0419981 0.0517284 0.0564144 0.0535076 0.0474877 0.0372009 0.023508 0.00803488 0.030384 0.184216 0.314711 0.415822 0.48374 0.516263 0.511108 0.473259 0.403691 0.307537 0.193013 0.0656198 0.0640451 0.188633 0.301998 0.398401 0.47076 0.516462 0.530304 0.512482 0.462832 0.383131 0.277815 0.152388 -0.00803489 -0.0235081 -0.0372009 -0.0474877 -0.0535076 -0.0564144 -0.0517284 -0.0419981 -0.0274784 -0.0054582 0.0201415 0.0512504 -0.0656198 -0.193013 -0.307537 -0.403691 -0.473259 -0.511108 -0.516263 -0.48374 -0.415822 -0.314711 -0.184216 -0.030384 0.013337 -0.130503 -0.27098 -0.397511 -0.501051 -0.573207 -0.604118 -0.587006 -0.51795 -0.383395 -0.250824 0.223013 0.0853217 0.121308 0.159147 0.19532 0.229744 0.261164 0.287187 0.306193 0.321798 0.312067 0.359239 0.203015 0.138758 0.314455 0.486322 0.644649 0.778521 0.87695 0.931403 0.933704 0.874906 0.760341 0.575085 0.252302 
</DataArray>
<DataArray Name="Strain_13" format="ascii" type="Float64">
0 0 0 0 0 0 0 0 0 0 0 0 0 0 0 0 0 0 0 0 0 0 0 0 0 0 0 0 0 0 0 0 0 0 0 0 0 0 0 0 0 0 0 0 0 0 0 0 0 0 0 0 0 0 0 0 0 0 0 0 0 0 0 0 0 0 0 0 0 0 0 0 0 0 0 0 0 0 0 0 0 0 0 0 0 0 0 0 0 0 0 0 0 0 0 0 0 0 0 0 0 0 0 0 0 0 0 0 0 0 0 0 0 0 0 0 0 0 0 0 0 0 0 0 0 0 0 0 0 0 0 0 0 0 0 0 0 0 0 0 0 0 0 0 0 0 0 0 0 0 0 0 0 0 0 0 0 0 0 0 0 0 0 0 0 0 0 0 0 0 0 0 0 0 0 0 0 0 0 0 0 0 0 0 0 0 0 0 0 0 0 0 0 0 0 0 0 0 0 0 0 0 0 0 0 0 0 0 0 0 0 0 0 0 0 0 0 0 0 0 0 0 0 0 0 0 0 0 0 0 0 0 0 0 0 0 0 0 0 0 0 0 0 0 0 0 0 0 0 0 0 0 0 0 0 0 0 0 0 0 0 0 0 0 0 0 0 0 0 0 0 0 0 0 0 0 0 0 0 0 0 0 0 0 0 0 0 0 
</DataArray>
<DataArray Name="Strain_23" format="ascii" type="Float64">
0 0 0 0 0 0 0 0 0 0 0 0 0 0 0 0 0 0 0 0 0 0 0 0 0 0 0 0 0 0 0 0 0 0 0 0 0 0 0 0 0 0 0 0 0 0 0 0 0 0 0 0 0 0 0 0 0 0 0 0 0 0 0 0 0 0 0 0 0 0 0 0 0 0 0 0 0 0 0 0 0 0 0 0 0 0 0 0 0 0 0 0 0 0 0 0 0 0 0 0 0 0 0 0 0 0 0 0 0 0 0 0 0 0 0 0 0 0 0 0 0 0 0 0 0 0 0 0 0 0 0 0 0 0 0 0 0 0 0 0 0 0 0 0 0 0 0 0 0 0 0 0 0 0 0 0 0 0 0 0 0 0 0 0 0 0 0 0 0 0 0 0 0 0 0 0 0 0 0 0 0 0 0 0 0 0 0 0 0 0 0 0 0 0 0 0 0 0 0 0 0 0 0 0 0 0 0 0 0 0 0 0 0 0 0 0 0 0 0 0 0 0 0 0 0 0 0 0 0 0 0 0 0 0 0 0 0 0 0 0 0 0 0 0 0 0 0 0 0 0 0 0 0 0 0 0 0 0 0 0 0 0 0 0 0 0 0 0 0 0 0 0 0 0 0 0 0 0 0 0 0 0 0 0 0 0 0 0 
</DataArray>
<DataArray Name="Strain_33" format="ascii" type="Float64">
0.0029975 0.00897975 0.0149237 0.020804 0.0265952 0.0322725 0.0378112 0.0431882 0.0483802 0.0533653 0.0581217 0.0626292 0.0031065 0.0093065 0.0154668 0.0215605 0.027562 0.0334457 0.0391862 0.0447587 0.0501395 0.0553058 0.0602353 0.0649067 0.0032155 0.00963325 0.0160097 0.0223173 0.0285293 0.0346192 0.0405612 0.0463293 0.0518988 0.0572462 0.0623487 0.0671843 0.0668688 0.0708215 0.074471 0.0778018 0.0807995 0.0834513 0.0857455 0.0876725 0.0892242 0.090394 0.0911762 0.0915682 0.0693003 0.0733967 0.077179 0.080631 0.0837377 0.0864858 0.0888635 0.0908607 0.0924688 0.093681 0.094492 0.0948983 0.0717317 0.075972 0.079887 0.0834602 0.086676 0.0895203 0.0919815 0.094049 0.0957135 0.096968 0.0978075 0.0982283 0.0915682 0.0911763 0.090394 0.0892242 0.0876725 0.0857455 0.0834513 0.0807995 0.0778018 0.074471 0.0708215 0.0668688 0.0948982 0.094492 0.093681 0.0924687 0.0908608 0.0888635 0.0864858 0.0837377 0.080631 0.077179 0.0733968 0.0693003 0.0982283 0.0978075 0.096968 0.0957135 0.094049 0.0919815 0.0895202 0.086676 0.0834602 0.079887 0.075972 0.0717317 0.0626292 0.0581217 0.0533652 0.0483802 0.0431882 0.0378112 0.0322725 0.0265952 0.020804 0.0149237 0.00897975 0.0029975 0.0649067 0.0602352 0.0553058 0.0501395 0.0447587 0.0391862 0.0334457 0.027562 0.0215605 0.0154668 0.0093065 0.0031065 0.0671843 0.0623487 0.0572462 0.0518988 0.0463293 0.0405613 0.0346192 0.0285292 0.0223173 0.0160097 0.00963325 0.0032155 -0.0029975 -0.00897975 -0.0149237 -0.020804 -0.0265952 -0.0322725 -0.0378112 -0.0431882 -0.0483802 -0.0533653 -0.0581217 -0.0626292 -0.0031065 -0.0093065 -0.0154668 -0.0215605 -0.027562 -0.0334457 -0.0391862 -0.0447587 -0.0501395 -0.0553058 -0.0602353 -0.0649067 -0.0032155 -0.00963325 -0.0160097 -0.0223173 -0.0285293 -0.0346192 -0.0405612 -0.0463293 -0.0518988 -0.0572462 -0.0623487 -0.0671843 -0.0668688 -0.0708215 -0.074471 -0.0778018 -0.0807995 -0.0834513 -0.0857455 -0.0876725 -0.0892242 -0.090394 -0.0911762 -0.0915682 -0.0693003 -0.0733967 -0.077179 -0.080631 -0.0837377 -0.0864858 -0.0888635 -0.0908607 -0.0924688 -0.093681 -0.094492 -0.0948983 -0.0717317 -0.075972 -0.079887 -0.0834602 -0.086676 -0.0895203 -0.0919815 -0.094049 -0.0957135 -0.096968 -0.0978075 -0.0982283 -0.0915682 -0.0911763 -0.090394 -0.0892242 -0.0876725 -0.0857455 -0.0834513 -0.0807995 -0.0778018 -0.074471 -0.0708215 -0.0668688 -0.0948982 -0.094492 -0.093681 -0.0924687 -0.0908608 -0.0888635 -0.0864858 -0.0837377 -0.080631 -0.077179 -0.0733968 -0.0693003 -0.0982283 -0.0978075 -0.096968 -0.0957135 -0.094049 -0.0919815 -0.0895202 -0.086676 -0.0834602 -0.079887 -0.075972 -0.0717317 -0.0626292 -0.0581217 -0.0533652 -0.0483802 -0.0431882 -0.0378112 -0.0322725 -0.0265952 -0.020804 -0.0149237 -0.00897975 -0.0029975 -0.0649067 -0.0602352 -0.0553058 -0.0501395 -0.0447587 -0.0391862 -0.0334457 -0.027562 -0.0215605 -0.0154668 -0.0093065 -0.0031065 -0.0671843 -0.0623487 -0.0572462 -0.0518988 -0.0463293 -0.0405613 -0.0346192 -0.0285292 -0.0223173 -0.0160097 -0.00963325 -0.0032155 
</DataArray>
<DataArray Name="Stress_11" format="ascii" type="Float64">
6225.62 5576.14 4931.73 4293.32 3664.86 3048.98 2448.37 1865.51 1303.03 763.231 248.434 -239.105 6216.76 5545.57 4877.49 4218.1 3568.48 2931.55 2310.12 1706.89 1124.36 565.047 31.3428 -474.458 6204.33 5511.43 4823.27 4141.99 3470.95 2812.87 2170.58 1546.81 944.29 365.5 -187.07 -710.974 -697.412 -1124.45 -1518.55 -1877.98 -2201.32 -2487.23 -2734.45 -2942.04 -3109.15 -3235.08 -3319.28 -3361.47 -950.171 -1393.75 -1803.3 -2177.13 -2513.61 -2811.16 -3068.7 -3285.02 -3459.16 -3590.48 -3678.3 -3722.32 -1203.95 -1663.83 -2088.7 -2476.63 -2825.93 -3135.02 -3402.59 -3627.43 -3808.49 -3944.99 -4036.35 -4082.15 -3361.47 -3319.28 -3235.08 -3109.15 -2942.04 -2734.45 -2487.23 -2201.32 -1877.98 -1518.55 -1124.45 -697.412 -3722.32 -3678.3 -3590.48 -3459.16 -3285.02 -3068.7 -2811.16 -2513.61 -2177.13 -1803.3 -1393.75 -950.171 -4082.15 -4036.35 -3944.99 -3808.49 -3627.43 -3402.59 -3135.02 -2825.93 -2476.63 -2088.7 -1663.83 -1203.95 -239.105 248.434 763.231 1303.03 1865.51 2448.37 3048.98 3664.86 4293.32 4931.73 5576.14 6225.62 -474.458 31.3428 565.047 1124.36 1706.89 2310.12 2931.55 3568.48 4218.1 4877.49 5545.57 6216.76 -710.974 -187.07 365.5 944.29 1546.81 2170.58 2812.87 3470.95 4141.99 4823.27 5511.43 6204.33 0.0706716 0.076923 0.0831654 0.0893264 0.0953934 0.101344 0.107156 0.112808 0.118278 0.123543 0.128582 0.133373 0.0687978 0.0755726 0.0822428 0.0888586 0.0953707 0.101754 0.107981 0.114022 0.119854 0.12545 0.130787 0.135842 0.0671455 0.0742779 0.0813968 0.0884347 0.0953679 0.10216 0.10878 0.115195 0.121375 0.127293 0.132923 0.138241 0.137895 0.142125 0.146046 0.149636 0.152878 0.155756 0.158253 0.160355 0.162052 0.163333 0.164191 0.164621 0.140594 0.145021 0.149107 0.152834 0.156186 0.15915 0.161713 0.163865 0.165597 0.166903 0.167776 0.168214 0.143225 0.147855 0.152114 0.155987 0.159461 0.162523 0.165165 0.167378 0.169156 0.170493 0.171387 0.171834 0.164621 0.164191 0.163333 0.162052 0.160355 0.158253 0.155756 0.152878 0.149636 0.146046 0.142125 0.137895 0.168214 0.167776 0.166903 0.165597 0.163865 0.161713 0.15915 0.156186 0.152834 0.149107 0.145021 0.140594 0.171834 0.171387 0.170493 0.169156 0.167378 0.165165 0.162523 0.159461 0.155987 0.152114 0.147855 0.143225 0.133373 0.128582 0.123543 0.118278 0.112808 0.107156 0.101344 0.0953934 0.0893264 0.0831654 0.076923 0.0706716 0.135842 0.130787 0.12545 0.119854 0.114022 0.107981 0.101754 0.0953707 0.0888586 0.0822428 0.0755726 0.0687978 0.138241 0.132923 0.127293 0.121375 0.115195 0.10878 0.10216 0.0953679 0.0884347 0.0813968 0.0742779 0.0671455 
</DataArray>
<DataArray Name="Stress_22" format="ascii" type="Float64">
6234.28 5578.46 4936.06 4299.08 3671.78 3056.48 2456.1 1872.89 1309.53 768.37 251.677 -238.2 6223.07 5543.04 4876.8 4217.42 3567.46 2930.46 2308.87 1705.58 1123.07 563.735 30.1189 -475.581 6212.11 5507.12 4818.87 4136.11 3463.95 2805.13 2162.65 1539.14 937.403 359.934 -190.856 -712.51 -699.241 -1129.32 -1526.65 -1889.47 -2216.17 -2505.31 -2755.59 -2965.86 -3135.25 -3262.98 -3348.4 -3391.22 -951.16 -1394.55 -1803.96 -2177.55 -2513.78 -2811.21 -3068.5 -3284.66 -3458.65 -3589.83 -3677.61 -3721.56 -1202.85 -1659.81 -2081.51 -2466.2 -2812.25 -3118.16 -3382.8 -3605.01 -3783.86 -3918.62 -4008.78 -4053.98 -3391.22 -3348.4 -3262.98 -3135.25 -2965.86 -2755.59 -2505.31 -2216.17 -1889.47 -1526.65 -1129.32 -699.241 -3721.56 -3677.61 -3589.83 -3458.65 -3284.66 -3068.5 -2811.21 -2513.78 -2177.55 -1803.96 -1394.55 -951.16 -4053.98 -4008.78 -3918.62 -3783.86 -3605.01 -3382.8 -3118.16 -2812.25 -2466.2 -2081.51 -1659.81 -1202.85 -238.2 251.677 768.37 1309.53 1872.89 2456.1 3056.48 3671.78 4299.08 4936.06 5578.46 6234.28 -475.581 30.1189 563.735 1123.07 1705.58 2308.87 2930.46 3567.46 4217.42 4876.8 5543.04 6223.07 -712.51 -190.856 359.934 937.403 1539.14 2162.65 2805.13 3463.95 4136.11 4818.87 5507.12 6212.11 0.0690907 0.0752367 0.0817351 0.0881054 0.0943905 0.100547 0.106547 0.112363 0.117966 0.123332 0.128437 0.133259 0.0690209 0.0756451 0.0822786 0.0888566 0.0953296 0.101677 0.107873 0.113889 0.119701 0.125284 0.130613 0.135667 0.068938 0.0759839 0.0828153 0.0896088 0.0962908 0.102847 0.109252 0.11548 0.121508 0.127311 0.132865 0.138146 0.137779 0.141978 0.145841 0.149354 0.152504 0.155282 0.157678 0.159685 0.161298 0.162512 0.163322 0.163728 0.140422 0.144858 0.148957 0.1527 0.15607 0.159053 0.161634 0.163804 0.165551 0.166869 0.167751 0.168192 0.143131 0.147795 0.152117 0.156076 0.159651 0.162823 0.165576 0.167895 0.169766 0.171178 0.172125 0.172599 0.163728 0.163322 0.162512 0.161298 0.159685 0.157678 0.155282 0.152504 0.149354 0.145841 0.141978 0.137779 0.168192 0.167751 0.166869 0.165551 0.163804 0.161634 0.159053 0.15607 0.1527 0.148957 0.144858 0.140422 0.172599 0.172125 0.171178 0.169766 0.167895 0.165576 0.162823 0.159651 0.156076 0.152117 0.147795 0.143131 0.133259 0.128437 0.123332 0.117966 0.112363 0.106547 0.100547 0.0943905 0.0881054 0.0817351 0.0752367 0.0690907 0.135667 0.130613 0.125284 0.119701 0.113889 0.107873 0.101677 0.0953296 0.0888566 0.0822786 0.0756451 0.0690209 0.138146 0.132865 0.127311 0.121508 0.11548 0.109252 0.102847 0.0962908 0.0896088 0.0828153 0.0759839 0.068938 
</DataArray>
<DataArray Name="Stress_12" format="ascii" type="Float64">
-1.54125 0.687561 -1.14262 -1.79121 -2.63819 -3.66216 -4.81538 -5.97667 -7.17423 -8.31197 -9.31651 -10.1869 -0.861151 -0.461459 -0.705159 -0.632245 -0.532079 -0.439479 -0.322214 -0.227808 -0.108317 0.0303856 0.111596 0.226949 0.824949 -1.07629 0.692556 1.28677 2.11778 3.15261 4.26126 5.45681 6.6198 7.733 8.76464 9.6274 -10.8421 -11.2722 -11.423 -11.2821 -10.8615 -10.1371 -9.11619 -7.86575 -6.35587 -4.68491 -2.86157 -0.966942 0.315045 0.371514 0.44279 0.446354 0.489301 0.470645 0.410292 0.397587 0.316932 0.230839 0.143815 0.0489859 10.2975 10.729 10.9067 10.8037 10.4066 9.71148 8.78408 7.54982 6.11247 4.51767 2.75539 0.931515 0.966942 2.86157 4.68491 6.35587 7.86575 9.11619 10.1371 10.8615 11.2821 11.423 11.2722 10.8421 -0.0489859 -0.143815 -0.230839 -0.316932 -0.397587 -0.410292 -0.470645 -0.489301 -0.446354 -0.44279 -0.371514 -0.315045 -0.931515 -2.75539 -4.51767 -6.11247 -7.54982 -8.78408 -9.71148 -10.4066 -10.8037 -10.9067 -10.729 -10.2975 10.1869 9.31651 8.31197 7.17423 5.97667 4.81538 3.66216 2.63819 1.79121 1.14262 -0.687561 1.54125 -0.226949 -0.111596 -0.0303856 0.108317 0.227808 0.322214 0.439479 0.532079 0.632245 0.705159 0.461459 0.861151 -9.6274 -8.76464 -7.733 -6.6198 -5.45681 -4.26126 -3.15261 -2.11778 -1.28677 -0.692556 1.07629 -0.824949 -9.29228e-05 0.000104511 0.000159749 0.000215814 0.000244588 0.000251718 0.000238838 0.000208773 0.000165631 0.000112909 5.43767e-05 -5.55715e-06 -8.45902e-05 -0.000149684 -0.000130029 -0.000134083 -0.000127581 -0.000119662 -0.000108819 -9.57273e-05 -8.13841e-05 -6.63117e-05 -5.05453e-05 -3.5551e-05 -0.000105126 -0.000239621 -0.000316811 -0.000364547 -0.000389046 -0.000388088 -0.000365399 -0.000324386 -0.000268606 -0.000202636 -0.000131024 -5.78164e-05 -6.34954e-05 -0.000115757 -0.000159639 -0.000192848 -0.000213536 -0.000220962 -0.000215194 -0.000196152 -0.000166002 -0.000125833 -7.85977e-05 -2.66857e-05 -2.13545e-05 -8.39238e-06 2.27426e-06 1.14494e-05 1.74994e-05 2.15537e-05 2.35062e-05 2.2295e-05 1.97867e-05 1.55005e-05 9.7951e-06 3.34789e-06 1.26601e-05 7.67573e-05 0.000131131 0.000173261 0.00020156 0.000215111 0.000212963 0.000197193 0.000168206 0.000128141 8.04226e-05 2.73418e-05 2.66857e-05 7.85977e-05 0.000125833 0.000166002 0.000196152 0.000215194 0.000220962 0.000213536 0.000192848 0.000159639 0.000115757 6.34954e-05 -3.3479e-06 -9.7951e-06 -1.55005e-05 -1.97867e-05 -2.2295e-05 -2.35062e-05 -2.15537e-05 -1.74994e-05 -1.14494e-05 -2.27427e-06 8.39238e-06 2.13545e-05 -2.73418e-05 -8.04226e-05 -0.000128141 -0.000168206 -0.000197193 -0.000212963 -0.000215111 -0.00020156 -0.000173261 -0.000131131 -7.67572e-05 -1.26601e-05 5.55712e-06 -5.43767e-05 -0.000112909 -0.000165631 -0.000208773 -0.000238838 -0.000251718 -0.000244588 -0.000215814 -0.000159749 -0.000104511 9.29228e-05 3.5551e-05 5.05452e-05 6.63117e-05 8.13841e-05 9.57273e-05 0.000108819 0.000119662 0.000127581 0.000134083 0.000130029 0.000149684 8.45902e-05 5.78164e-05 0.000131024 0.000202636 0.000268606 0.000324386 0.000365399 0.000388088 0.000389046 0.000364547 0.000316811 0.00023962 0.000105126 
</DataArray>
<DataArray Name="Stress_13" format="ascii" type="Float64">