<?xml version="1.0"?>
<VTKFile byte_order="LittleEndian" type="UnstructuredGrid" version="0.1">
<UnstructuredGrid>
<Piece NumberOfCells="288" NumberOfPoints="384">
<PointData>
<DataArray Name="Warping_X" format="ascii" type="Float64">
-0 -0 0 0 0 0 0 0 0 0 0 0 0 0 -0 0 0 0 0 0 0 0 0 0 0 0 0 0 0 0 0 0 0 0 0 0 0 0 0 0 0 0 0 0 0 0 0 0 0 0 0 0 0 0 0 0 0 0 0 0 0 0 0 0 0 0 0 0 0 0 0 0 0 0 0 0 0 0 0 0 0 0 0 0 0 0 0 0 0 0 0 0 0 0 0 0 0 0 0 0 0 0 0 0 0 0 0 0 0 0 0 0 0 0 0 0 0 0 0 0 0 0 0 0 0 0 0 0 0 0 0 0 0 0 0 0 0 0 0 0 0 0 0 0 0 0 0 0 0 0 0 0 0 0 0 0 0 0 0 0 0 0 0 0 0 0 0 0 0 0 0 0 0 0 0 0 0 0 0 0 0 0 0 0 0 0 0 0 0 0 0 0 0 0 0 0 0 0 0 0 0 0 0 0 0 0 0 0 -0 0 0 0 0 0 0 0 0 0 0 0 0 0 0 0 0 0 0 0 0 0 0 0 0 0 0 0 0 0 0 0 0 0 0 0 0 0 0 0 0 0 0 0 0 0 0 0 0 0 0 0 0 0 0 0 0 0 0 0 0 0 0 0 0 0 0 0 0 0 0 0 0 0 0 0 0 0 0 0 0 0 0 0 0 0 0 0 0 0 0 0 0 0 0 0 0 0 0 0 0 0 0 0 0 0 0 0 -0 0 0 0 0 0 0 0 0 0 0 0 0 0 0 0 0 0 0 0 0 0 0 0 0 0 0 0 0 0 0 0 0 0 0 0 0 0 0 0 0 0 0 0 0 0 0 0 0 0 0 0 0 0 0 0 0 0 0 0 0 0 0 0 0 0 0 0 
</DataArray>
<DataArray Name="Warping_Y" format="ascii" type="Float64">
0 -0 0 0 0 0 0 0 0 0 0 0 0 0 -0 0 0 0 0 0 0 0 0 0 0 0 0 0 0 0 0 0 0 0 0 0 0 0 0 0 0 0 0 0 0 0 0 0 0 0 0 0 -0 0 0 0 0 0 0 0 0 0 0 0 0 0 0 0 0 0 0 0 0 0 0 0 0 0 0 0 0 0 0 0 0 0 0 0 0 0 0 0 0 0 0 0 0 0 0 0 -0 0 0 0 0 0 0 0 0 0 0 0 0 0 0 0 0 0 0 0 0 0 0 0 0 0 0 0 0 0 0 0 0 0 0 0 0 0 0 0 0 0 0 0 0 0 0 0 0 0 0 0 0 0 0 0 0 0 0 0 0 0 0 0 0 0 0 0 0 0 0 0 0 0 0 0 0 0 0 0 0 0 0 0 0 0 0 0 0 0 0 0 0 0 0 0 0 0 0 0 0 0 0 0 0 0 0 0 0 0 0 0 0 0 0 0 0 0 0 0 -0 0 0 0 0 0 0 0 0 0 0 0 0 0 0 0 0 0 0 0 0 0 0 0 0 0 0 0 0 0 0 0 0 0 0 0 -0 0 0 0 0 0 0 0 0 0 0 0 0 0 0 0 0 0 0 0 0 0 0 0 0 0 0 0 0 0 0 0 0 0 0 0 0 0 0 0 0 0 0 0 0 0 0 0 -0 0 0 0 0 0 0 0 0 0 0 0 0 0 0 0 0 0 0 0 0 0 0 0 0 0 0 0 0 0 0 0 0 0 0 0 0 0 0 0 0 0 0 0 0 0 0 0 0 0 0 0 0 0 0 0 0 0 0 0 0 0 0 0 0 0 0 0 0 0 0 0 0 0 0 0 0 0 0 0 
</DataArray>
<DataArray Name="Warping_Z" format="ascii" type="Float64">
0 0 0 0 0 0 0 0 0 0 0 0 0 0 0 0 0 0 0 0 0 0 0 0 0 0 0 0 0 0 0 0 0 0 0 0 0 0 0 0 0 0 0 0 0 0 0 0 0 0 0 0 0 0 0 0 0 0 0 0 0 0 0 0 0 0 0 0 0 0 0 0 0 0 0 0 0 0 0 0 0 0 0 0 0 0 0 0 0 0 0 0 0 0 0 0 0 0 0 0 0 0 0 0 0 0 0 0 0 0 0 0 0 0 0 0 0 0 0 0 0 0 0 0 0 0 0 0 0 0 0 0 0 0 0 0 0 0 0 0 0 0 0 0 0 0 0 0 0 0 0 0 0 0 0 0 0 0 0 0 0 0 0 0 0 0 0 0 0 0 0 0 0 0 0 0 0 0 0 0 0 0 0 0 0 0 0 0 0 0 0 0 0 0 0 0 0 0 0 0 0 0 0 0 0 0 0 0 0 0 0 0 0 0 0 0 0 0 0 0 0 0 0 0 0 0 0 0 0 0 0 0 0 0 0 0 0 0 0 0 0 0 0 0 0 0 0 0 0 0 0 0 0 0 0 0 0 0 0 0 0 0 0 0 0 0 0 0 0 0 0 0 0 0 0 0 0 0 0 0 0 0 0 0 0 0 0 0 0 0 0 0 0 0 0 0 0 0 0 0 0 0 0 0 0 0 0 0 0 0 0 0 0 0 0 0 0 0 0 0 0 0 0 0 0 0 0 0 0 0 0 0 0 0 0 0 0 0 0 0 0 0 0 0 0 0 0 0 0 0 0 0 0 0 0 0 0 0 0 0 0 0 0 0 0 0 0 0 0 0 0 0 0 0 0 0 0 0 0 0 0 0 0 0 
</DataArray>
</PointData>
<CellData>
<DataArray Name="MaterialId" format="ascii" type="Float64">
1 1 1 1 1 1 1 1 1 1 1 1 1 1 1 1 1 1 1 1 1 1 1 1 1 1 1 1 1 1 1 1 1 1 1 1 1 1 1 1 1 1 1 1 1 1 1 1 1 1 1 1 1 1 1 1 1 1 1 1 1 1 1 1 1 1 1 1 1 1 1 1 1 1 1 1 1 1 1 1 1 1 1 1 1 1 1 1 1 1 1 1 1 1 1 1 1 1 1 1 1 1 1 1 1 1 1 1 1 1 1 1 1 1 1 1 1 1 1 1 1 1 1 1 1 1 1 1 1 1 1 1 1 1 1 1 1 1 1 1 1 1 1 1 2 2 2 2 2 2 2 2 2 2 2 2 2 2 2 2 2 2 2 2 2 2 2 2 2 2 2 2 2 2 2 2 2 2 2 2 2 2 2 2 2 2 2 2 2 2 2 2 2 2 2 2 2 2 2 2 2 2 2 2 2 2 2 2 2 2 2 2 2 2 2 2 2 2 2 2 2 2 2 2 2 2 2 2 2 2 2 2 2 2 2 2 2 2 2 2 2 2 2 2 2 2 2 2 2 2 2 2 2 2 2 2 2 2 2 2 2 2 2 2 2 2 2 2 2 2 2 2 2 2 2 2 2 2 2 2 2 2 2 2 2 2 2 2 
</DataArray>
<DataArray Name="FiberAngle" format="ascii" type="Float64">
0 0 0 0 0 0 0 0 0 0 0 0 0 0 0 0 0 0 0 0 0 0 0 0 0 0 0 0 0 0 0 0 0 0 0 0 0 0 0 0 0 0 0 0 0 0 0 0 0 0 0 0 0 0 0 0 0 0 0 0 0 0 0 0 0 0 0 0 0 0 0 0 0 0 0 0 0 0 0 0 0 0 0 0 0 0 0 0 0 0 0 0 0 0 0 0 0 0 0 0 0 0 0 0 0 0 0 0 0 0 0 0 0 0 0 0 0 0 0 0 0 0 0 0 0 0 0 0 0 0 0 0 0 0 0 0 0 0 0 0 0 0 0 0 0 0 0 0 0 0 0 0 0 0 0 0 0 0 0 0 0 0 0 0 0 0 0 0 0 0 0 0 0 0 0 0 0 0 0 0 0 0 0 0 0 0 0 0 0 0 0 0 0 0 0 0 0 0 0 0 0 0 0 0 0 0 0 0 0 0 0 0 0 0 0 0 0 0 0 0 0 0 0 0 0 0 0 0 0 0 0 0 0 0 0 0 0 0 0 0 0 0 0 0 0 0 0 0 0 0 0 0 0 0 0 0 0 0 0 0 0 0 0 0 0 0 0 0 0 0 0 0 0 0 0 0 0 0 0 0 0 0 0 0 0 0 0 0 
</DataArray>
<DataArray Name="Strain_11" format="ascii" type="Float64">
0 0 0 0 0 0 0 0 0 0 0 0 0 0 0 0 0 0 0 0 0 0 0 0 0 0 0 0 0 0 0 0 0 0 0 0 0 0 0 0 0 0 0 0 0 0 0 0 0 0 0 0 0 0 0 0 0 0 0 0 0 0 0 0 0 0 0 0 0 0 0 0 0 0 0 0 0 0 0 0 0 0 0 0 0 0 0 0 0 0 0 0 0 0 0 0 0 0 0 0 0 0 0 0 0 0 0 0 0 0 0 0 0 0 0 0 0 0 0 0 0 0 0 0 0 0 0 0 0 0 0 0 0 0 0 0 0 0 0 0 0 0 0 0 0 0 0 0 0 0 0 0 0 0 0 0 0 0 0 0 0 0 0 0 0 0 0 0 0 0 0 0 0 0 0 0 0 0 0 0 0 0 0 0 0 0 0 0 0 0 0 0 0 0 0 0 0 0 0 0 0 0 0 0 0 0 0 0 0 0 0 0 0 0 0 0 0 0 0 0 0 0 0 0 0 0 0 0 0 0 0 0 0 0 0 0 0 0 0 0 0 0 0 0 0 0 0 0 0 0 0 0 0 0 0 0 0 0 0 0 0 0 0 0 0 0 0 0 0 0 0 0 0 0 0 0 0 0 0 0 0 0 0 0 0 0 0 0 
</DataArray>
<DataArray Name="Strain_22" format="ascii" type="Float64">
0 0 0 0 0 0 0 0 0 0 0 0 0 0 0 0 0 0 0 0 0 0 0 0 0 0 0 0 0 0 0 0 0 0 0 0 0 0 0 0 0 0 0 0 0 0 0 0 0 0 0 0 0 0 0 0 0 0 0 0 0 0 0 0 0 0 0 0 0 0 0 0 0 0 0 0 0 0 0 0 0 0 0 0 0 0 0 0 0 0 0 0 0 0 0 0 0 0 0 0 0 0 0 0 0 0 0 0 0 0 0 0 0 0 0 0 0 0 0 0 0 0 0 0 0 0 0 0 0 0 0 0 0 0 0 0 0 0 0 0 0 0 0 0 0 0 0 0 0 0 0 0 0 0 0 0 0 0 0 0 0 0 0 0 0 0 0 0 0 0 0 0 0 0 0 0 0 0 0 0 0 0 0 0 0 0 0 0 0 0 0 0 0 0 0 0 0 0 0 0 0 0 0 0 0 0 0 0 0 0 0 0 0 0 0 0 0 0 0 0 0 0 0 0 0 0 0 0 0 0 0 0 0 0 0 0 0 0 0 0 0 0 0 0 0 0 0 0 0 0 0 0 0 0 0 0 0 0 0 0 0 0 0 0 0 0 0 0 0 0 0 0 0 0 0 0 0 0 0 0 0 0 0 0 0 0 0 0 
</DataArray>
<DataArray Name="Strain_12" format="ascii" type="Float64">
0 0 0 0 0 0 0 0 0 0 0 0 0 0 0 0 0 0 0 0 0 0 0 0 0 0 0 0 0 0 0 0 0 0 0 0 0 0 0 0 0 0 0 0 0 0 0 0 0 0 0 0 0 0 0 0 0 0 0 0 0 0 0 0 0 0 0 0 0 0 0 0 0 0 0 0 0 0 0 0 0 0 0 0 0 0 0 0 0 0 0 0 0 0 0 0 0 0 0 0 0 0 0 0 0 0 0 0 0 0 0 0 0 0 0 0 0 0 0 0 0 0 0 0 0 0 0 0 0 0 0 0 0 0 0 0 0 0 0 0 0 0 0 0 0 0 0 0 0 0 0 0 0 0 0 0 0 0 0 0 0 0 0 0 0 0 0 0 0 0 0 0 0 0 0 0 0 0 0 0 0 0 0 0 0 0 0 0 0 0 0 0 0 0 0 0 0 0 0 0 0 0 0 0 0 0 0 0 0 0 0 0 0 0 0 0 0 0 0 0 0 0 0 0 0 0 0 0 0 0 0 0 0 0 0 0 0 0 0 0 0 0 0 0 0 0 0 0 0 0 0 0 0 0 0 0 0 0 0 0 0 0 0 0 0 0 0 0 0 0 0 0 0 0 0 0 0 0 0 0 0 0 0 0 0 0 0 0 
</DataArray>
<DataArray Name="Strain_13" format="ascii" type="Float64">
-78.2259 -75.1515 -72.3441 -69.9758 -68.0683 -66.625 -65.6377 -65.0882 -64.9487 -65.1808 -65.7463 -66.5967 -78.0229 -74.8993 -72.189 -69.9145 -68.0877 -66.7102 -65.7746 -65.2629 -65.1476 -65.3931 -65.9599 -66.8021 -77.8026 -74.6235 -72.0005 -69.8137 -68.0637 -66.7526 -65.8717 -65.4046 -65.3235 -65.5924 -66.174 -67.0233 -67.6784 -68.9362 -70.3139 -71.7529 -73.1969 -74.5948 -75.8947 -77.0522 -78.0273 -78.7883 -79.3099 -79.5747 -67.8677 -69.1025 -70.4517 -71.8601 -73.2724 -74.6373 -75.9065 -77.0358 -77.9874 -78.7296 -79.2382 -79.4965 -68.0888 -69.3169 -70.6547 -72.0492 -73.4456 -74.7928 -76.0443 -77.1578 -78.0956 -78.8266 -79.3273 -79.5816 -79.5747 -79.3099 -78.7883 -78.0273 -77.0522 -75.8947 -74.5948 -73.1969 -71.7529 -70.3139 -68.9362 -67.6784 -79.4965 -79.2382 -78.7296 -77.9874 -77.0358 -75.9065 -74.6373 -73.2724 -71.8601 -70.4517 -69.1025 -67.8677 -79.5816 -79.3273 -78.8266 -78.0956 -77.1578 -76.0443 -74.7928 -73.4456 -72.0492 -70.6547 -69.3169 -68.0888 -66.5967 -65.7463 -65.1808 -64.9487 -65.0882 -65.6377 -66.625 -68.0683 -69.9758 -72.3441 -75.1515 -78.2259 -66.8021 -65.9599 -65.3931 -65.1476 -65.2629 -65.7746 -66.7102 -68.0877 -69.9145 -72.189 -74.8993 -78.0229 -67.0233 -66.174 -65.5924 -65.3235 -65.4046 -65.8717 -66.7526 -68.0637 -69.8137 -72.0005 -74.6235 -77.8026 92.5028 87.9305 82.1774 75.4432 67.853 59.4983 50.4814 40.92 30.9443 20.7084 10.3191 -0.0796216 87.0852 82.5317 76.9798 70.4971 63.1798 55.1194 46.4162 37.1834 27.5488 17.6511 7.60847 -2.44589 82.0653 77.5152 72.1415 65.8665 58.7898 50.9859 42.5549 33.6016 24.2553 14.6553 4.90969 -4.8533 -10.3401 -20.3247 -29.9036 -38.938 -47.3052 -54.9038 -61.6194 -67.3643 -72.0557 -75.6329 -78.0453 -79.259 -12.3704 -22.0289 -31.2917 -40.0364 -48.1371 -55.4883 -61.9898 -67.5489 -72.092 -75.5548 -77.8903 -79.0652 -14.4913 -23.8686 -32.8636 -41.3602 -49.2343 -56.3762 -62.6913 -68.0958 -72.5122 -75.8777 -78.1471 -79.2896 -79.259 -78.0453 -75.6329 -72.0557 -67.3643 -61.6194 -54.9038 -47.3052 -38.938 -29.9036 -20.3247 -10.3401 -79.0652 -77.8903 -75.5548 -72.092 -67.5489 -61.9898 -55.4883 -48.1371 -40.0364 -31.2917 -22.0289 -12.3704 -79.2896 -78.1471 -75.8777 -72.5122 -68.0958 -62.6913 -56.3762 -49.2343 -41.3602 -32.8636 -23.8686 -14.4913 -0.0796217 10.3191 20.7084 30.9443 40.92 50.4814 59.4983 67.853 75.4432 82.1774 87.9305 92.5028 -2.44589 7.60847 17.6511 27.5488 37.1834 46.4162 55.1194 63.1798 70.4971 76.9798 82.5317 87.0852 -4.8533 4.90969 14.6553 24.2553 33.6016 42.5549 50.9859 58.7898 65.8665 72.1415 77.5152 82.0653 
</DataArray>
<DataArray Name="Strain_23" format="ascii" type="Float64">
0.0042544 0.522368 1.28427 2.32632 3.57535 4.95653 6.39518 7.82253 9.17217 10.3893 11.4233 12.2301 -0.0352955 0.585852 1.34932 2.37099 3.59179 4.93746 6.3373 7.72328 9.03364 10.2132 11.2122 11.9903 0.0217736 0.570775 1.33436 2.35865 3.57282 4.90526 6.28602 7.65016 8.93821 10.0954 11.0726 11.8317 12.7773 13.0406 13.0039 12.6609 12.0185 11.0864 9.8846 8.44118 6.79072 4.97384 3.03411 1.01975 12.5155 12.764 12.7201 12.3791 11.7458 10.8313 9.65449 8.24273 6.6302 4.8557 2.96193 0.995429 12.3424 12.5809 12.5318 12.1906 11.5635 10.6604 9.4996 8.10906 6.52156 4.77592 2.91312 0.97889 -1.01975 -3.03411 -4.97384 -6.79072 -8.44118 -9.8846 -11.0864 -12.0185 -12.6609 -13.0039 -13.0406 -12.7773 -0.995429 -2.96193 -4.8557 -6.6302 -8.24273 -9.65449 -10.8313 -11.7458 -12.3791 -12.7201 -12.764 -12.5155 -0.97889 -2.91312 -4.77592 -6.52156 -8.10906 -9.4996 -10.6604 -11.5635 -12.1906 -12.5318 -12.5809 -12.3424 -12.2301 -11.4233 -10.3893 -9.17217 -7.82253 -6.39518 -4.95653 -3.57535 -2.32632 -1.28427 -0.522368 -0.0042544 -11.9903 -11.2122 -10.2132 -9.03364 -7.72328 -6.3373 -4.93746 -3.59179 -2.37099 -1.34932 -0.585852 0.0352955 -11.8317 -11.0726 -10.0954 -8.93821 -7.65016 -6.28602 -4.90526 -3.57282 -2.35865 -1.33436 -0.570775 -0.0217736 5.6655 16.3857 26.5803 36.0192 44.5877 52.2045 58.7829 64.2587 68.5631 71.6797 73.5833 74.2528 5.52183 15.7836 25.6308 34.7629 43.0612 50.4352 56.8067 62.1073 66.29 69.3169 71.1628 71.8191 5.32349 15.3711 24.9334 33.7958 41.8587 49.0191 55.2054 60.3543 64.4237 67.3726 69.1643 69.8028 73.7035 71.9613 69.0602 65.0538 60.0315 54.0654 47.2511 39.7001 31.5321 22.8784 13.8693 4.64699 71.2973 69.6193 66.817 62.9494 58.0911 52.3207 45.7285 38.4213 30.5185 22.1435 13.4246 4.4979 69.3013 67.6749 64.9538 61.1936 56.475 50.8679 44.4583 37.3554 29.6716 21.5307 13.0534 4.37311 -4.64699 -13.8693 -22.8784 -31.5321 -39.7001 -47.2511 -54.0654 -60.0315 -65.0538 -69.0602 -71.9613 -73.7035 -4.4979 -13.4246 -22.1435 -30.5185 -38.4213 -45.7285 -52.3207 -58.0911 -62.9494 -66.817 -69.6193 -71.2973 -4.37311 -13.0534 -21.5307 -29.6716 -37.3554 -44.4583 -50.8679 -56.475 -61.1936 -64.9538 -67.6749 -69.3013 -74.2528 -73.5833 -71.6797 -68.5631 -64.2587 -58.7829 -52.2045 -44.5877 -36.0192 -26.5803 -16.3857 -5.6655 -71.8191 -71.1628 -69.3169 -66.29 -62.1073 -56.8067 -50.4352 -43.0612 -34.7629 -25.6308 -15.7836 -5.52183 -69.8028 -69.1643 -67.3726 -64.4237 -60.3543 -55.2054 -49.0191 -41.8587 -33.7958 -24.9334 -15.3711 -5.32349 
</DataArray>
<DataArray Name="Strain_33" format="ascii" type="Float64">
0 0 0 0 0 0 0 0 0 0 0 0 0 0 0 0 0 0 0 0 0 0 0 0 0 0 0 0 0 0 0 0 0 0 0 0 0 0 0 0 0 0 0 0 0 0 0 0 0 0 0 0 0 0 0 0 0 0 0 0 0 0 0 0 0 0 0 0 0 0 0 0 0 0 0 0 0 0 0 0 0 0 0 0 0 0 0 0 0 0 0 0 0 0 0 0 0 0 0 0 0 0 0 0 0 0 0 0 0 0 0 0 0 0 0 0 0 0 0 0 0 0 0 0 0 0 0 0 0 0 0 0 0 0 0 0 0 0 0 0 0 0 0 0 0 0 0 0 0 0 0 0 0 0 0 0 0 0 0 0 0 0 0 0 0 0 0 0 0 0 0 0 0 0 0 0 0 0 0 0 0 0 0 0 0 0 0 0 0 0 0 0 0 0 0 0 0 0 0 0 0 0 0 0 0 0 0 0 0 0 0 0 0 0 0 0 0 0 0 0 0 0 0 0 0 0 0 0 0 0 0 0 0 0 0 0 0 0 0 0 0 0 0 0 0 0 0 0 0 0 0 0 0 0 0 0 0 0 0 0 0 0 0 0 0 0 0 0 0 0 0 0 0 0 0 0 0 0 0 0 0 0 0 0 0 0 0 0 
</DataArray>
<DataArray Name="Stress_11" format="ascii" type="Float64">
0 0 0 0 0 0 0 0 0 0 0 0 0 0 0 0 0 0 0 0 0 0 0 0 0 0 0 0 0 0 0 0 0 0 0 0 0 0 0 0 0 0 0 0 0 0 0 0 0 0 0 0 0 0 0 0 0 0 0 0 0 0 0 0 0 0 0 0 0 0 0 0 0 0 0 0 0 0 0 0 0 0 0 0 0 0 0 0 0 0 0 0 0 0 0 0 0 0 0 0 0 0 0 0 0 0 0 0 0 0 0 0 0 0 0 0 0 0 0 0 0 0 0 0 0 0 0 0 0 0 0 0 0 0 0 0 0 0 0 0 0 0 0 0 0 0 0 0 0 0 0 0 0 0 0 0 0 0 0 0 0 0 0 0 0 0 0 0 0 0 0 0 0 0 0 0 0 0 0 0 0 0 0 0 0 0 0 0 0 0 0 0 0 0 0 0 0 0 0 0 0 0 0 0 0 0 0 0 0 0 0 0 0 0 0 0 0 0 0 0 0 0 0 0 0 0 0 0 0 0 0 0 0 0 0 0 0 0 0 0 0 0 0 0 0 0 0 0 0 0 0 0 0 0 0 0 0 0 0 0 0 0 0 0 0 0 0 0 0 0 0 0 0 0 0 0 0 0 0 0 0 0 0 0 0 0 0 0 
</DataArray>
<DataArray Name="Stress_22" format="ascii" type="Float64">
0 0 0 0 0 0 0 0 0 0 0 0 0 0 0 0 0 0 0 0 0 0 0 0 0 0 0 0 0 0 0 0 0 0 0 0 0 0 0 0 0 0 0 0 0 0 0 0 0 0 0 0 0 0 0 0 0 0 0 0 0 0 0 0 0 0 0 0 0 0 0 0 0 0 0 0 0 0 0 0 0 0 0 0 0 0 0 0 0 0 0 0 0 0 0 0 0 0 0 0 0 0 0 0 0 0 0 0 0 0 0 0 0 0 0 0 0 0 0 0 0 0 0 0 0 0 0 0 0 0 0 0 0 0 0 0 0 0 0 0 0 0 0 0 0 0 0 0 0 0 0 0 0 0 0 0 0 0 0 0 0 0 0 0 0 0 0 0 0 0 0 0 0 0 0 0 0 0 0 0 0 0 0 0 0 0 0 0 0 0 0 0 0 0 0 0 0 0 0 0 0 0 0 0 0 0 0 0 0 0 0 0 0 0 0 0 0 0 0 0 0 0 0 0 0 0 0 0 0 0 0 0 0 0 0 0 0 0 0 0 0 0 0 0 0 0 0 0 0 0 0 0 0 0 0 0 0 0 0 0 0 0 0 0 0 0 0 0 0 0 0 0 0 0 0 0 0 0 0 0 0 0 0 0 0 0 0 0 
</DataArray>
<DataArray Name="Stress_12" format="ascii" type="Float64">
0 0 0 0 0 0 0 0 0 0 0 0 0 0 0 0 0 0 0 0 0 0 0 0 0 0 0 0 0 0 0 0 0 0 0 0 0 0 0 0 0 0 0 0 0 0 0 0 0 0 0 0 0 0 0 0 0 0 0 0 0 0 0 0 0 0 0 0 0 0 0 0 0 0 0 0 0 0 0 0 0 0 0 0 0 0 0 0 0 0 0 0 0 0 0 0 0 0 0 0 0 0 0 0 0 0 0 0 0 0 0 0 0 0 0 0 0 0 0 0 0 0 0 0 0 0 0 0 0 0 0 0 0 0 0 0 0 0 0 0 0 0 0 0 0 0 0 0 0 0 0 0 0 0 0 0 0 0 0 0 0 0 0 0 0 0 0 0 0 0 0 0 0 0 0 0 0 0 0 0 0 0 0 0 0 0 0 0 0 0 0 0 0 0 0 0 0 0 0 0 0 0 0 0 0 0 0 0 0 0 0 0 0 0 0 0 0 0 0 0 0 0 0 0 0 0 0 0 0 0 0 0 0 0 0 0 0 0 0 0 0 0 0 0 0 0 0 0 0 0 0 0 0 0 0 0 0 0 0 0 0 0 0 0 0 0 0 0 0 0 0 0 0 0 0 0 0 0 0 0 0 0 0 0 0 0 0 0 
</DataArray>
<DataArray Name="Stress_13" format="ascii" type="Float64">
-3259.44 -3131.34 -3014.36 -2915.68 -2836.2 -2776.07 -2734.92 -2712.03 -2706.22 -2715.89 -2739.45 -2774.89 -3250.98 -3120.83 -3007.9 -2913.13 -2837.01 -2779.61 -2740.63 -2719.31 -2714.5 -2724.73 -2748.35 -2783.44 -3241.8 -3109.34 -3000.05 -2908.93 -2836.01 -2781.38 -2744.68 -2725.21 -2721.84 -2733.04 -2757.27 -2792.66 -2819.96 -2872.36 -2929.77 -2989.73 -3049.89 -3108.14 -3162.3 -3210.53 -3251.17 -3282.87 -3304.6 -3315.64 -2827.84 -2879.29 -2935.51 -2994.19 -3053.04 -3109.91 -3162.8 -3209.85 -3249.5 -3280.43 -3301.62 -3312.38 -2837.06 -2888.23 -2943.97 -3002.07 -3060.26 -3116.39 -3168.54 -3214.93 -3254.01 -3284.47 -3305.33 -3315.93 -3315.64 -3304.6 -3282.87 -3251.17 -3210.53 -3162.3 -3108.14 -3049.89 -2989.73 -2929.77 -2872.36 -2819.96 -3312.38 -3301.62 -3280.43 -3249.5 -3209.85 -3162.8 -3109.91 -3053.04 -2994.19 -2935.51 -2879.29 -2827.84 -3315.93 -3305.33 -3284.47 -3254.01 -3214.93 -3168.54 -3116.39 -3060.26 -3002.07 -2943.97 -2888.23 -2837.06 -2774.89 -2739.45 -2715.89 -2706.22 -2712.03 -2734.92 -2776.07 -2836.2 -2915.68 -3014.36 -3131.34 -3259.44 -2783.44 -2748.35 -2724.73 -2714.5 -2719.31 -2740.63 -2779.61 -2837.01 -2913.13 -3007.9 -3120.83 -3250.98 -2792.66 -2757.27 -2733.04 -2721.84 -2725.21 -2744.68 -2781.38 -2836.01 -2908.93 -3000.05 -3109.34 -3241.8 0.0385431 0.036638 0.0342409 0.0314349 0.0282723 0.0247912 0.0210341 0.0170501 0.0128936 0.00862856 0.00429966 -3.3176e-05 0.0362858 0.0343885 0.0320752 0.029374 0.0263251 0.0229666 0.0193402 0.0154932 0.0114787 0.0073547 0.00317022 -0.00101913 0.0341941 0.0322983 0.0300592 0.0274446 0.0244959 0.0212443 0.0177313 0.0140008 0.0101065 0.00610643 0.00204572 -0.00202222 -0.00430842 -0.00846871 -0.0124599 -0.0162243 -0.0197107 -0.0228767 -0.0256749 -0.0280687 -0.0300235 -0.031514 -0.0325191 -0.0330248 -0.00515439 -0.00917878 -0.0130383 -0.016682 -0.0200573 -0.0231203 -0.0258293 -0.0281456 -0.0300386 -0.0314814 -0.0324545 -0.0329441 -0.00603809 -0.00994534 -0.0136933 -0.0172336 -0.0205144 -0.0234903 -0.0261216 -0.0283735 -0.0302136 -0.031616 -0.0325615 -0.0330376 -0.0330248 -0.0325191 -0.031514 -0.0300235 -0.0280687 -0.0256749 -0.0228767 -0.0197107 -0.0162243 -0.0124599 -0.00846871 -0.00430842 -0.0329441 -0.0324545 -0.0314814 -0.0300386 -0.0281456 -0.0258293 -0.0231203 -0.0200573 -0.016682 -0.0130383 -0.00917878 -0.00515439 -0.0330376 -0.0325615 -0.031616 -0.0302136 -0.0283735 -0.0261216 -0.0234903 -0.0205144 -0.0172336 -0.0136933 -0.00994534 -0.00603809 -3.3176e-05 0.00429966 0.00862856 0.0128936 0.0170501 0.0210341 0.0247912 0.0282723 0.0314349 0.0342409 0.036638 0.0385431 -0.00101913 0.00317022 0.0073547 0.0114787 0.0154932 0.0193402 0.0229666 0.0263251 0.029374 0.0320752 0.0343885 0.0362858 -0.00202222 0.00204572 0.00610643 0.0101065 0.0140008 0.0177313 0.0212443 0.0244959 0.0274446 0.0300592 0.0322983 0.0341941 
</DataArray>
<DataArray Name="Stress_23" format="ascii" type="Float64">
0.177268 21.7655 53.5117 96.9307 148.974 206.524 266.468 325.941 382.177 432.89 475.974 509.592 -1.47066 24.4107 56.2221 98.7921 149.659 205.729 264.056 321.806 376.405 425.552 467.18 499.6 0.907239 23.7825 55.5989 98.278 148.869 204.388 261.92 318.759 372.428 420.646 461.361 492.99 532.392 543.365 541.834 527.541 500.776 461.939 411.862 351.719 282.949 207.245 126.422 42.49 521.483 531.836 530.007 515.801 489.413 451.307 402.273 343.45 276.261 202.322 123.415 41.4765 514.271 524.209 522.164 507.945 481.815 444.185 395.82 337.88 271.734 198.998 121.381 40.7874 -42.49 -126.422 -207.245 -282.949 -351.719 -411.862 -461.939 -500.776 -527.541 -541.834 -543.365 -532.392 -41.4765 -123.415 -202.322 -276.261 -343.45 -402.273 -451.307 -489.413 -515.801 -530.007 -531.836 -521.483 -40.7874 -121.381 -198.998 -271.734 -337.88 -395.82 -444.185 -481.815 -507.945 -522.164 -524.209 -514.271 -509.592 -475.974 -432.89 -382.177 -325.941 -266.468 -206.524 -148.974 -96.9307 -53.5117 -21.7655 -0.177268 -499.6 -467.18 -425.552 -376.405 -321.806 -264.056 -205.729 -149.659 -98.7921 -56.2221 -24.4107 1.47066 -492.99 -461.361 -420.646 -372.428 -318.759 -261.92 -204.388 -148.869 -98.278 -55.5989 -23.7825 -0.907239 0.00236064 0.00682741 0.0110752 0.0150081 0.0185784 0.0217521 0.0244931 0.0267747 0.0285682 0.0298668 0.03066 0.0309389 0.00230078 0.00657655 0.0106796 0.0144847 0.0179423 0.0210148 0.0236696 0.0258782 0.027621 0.0288823 0.0296514 0.0299249 0.00221814 0.00640469 0.010389 0.0140817 0.0174413 0.0204248 0.0230024 0.0251478 0.0268434 0.0280721 0.0288187 0.0290847 0.03071 0.0299841 0.0287753 0.027106 0.0250133 0.0225274 0.0196881 0.0165418 0.0131385 0.00953273 0.00577894 0.00193626 0.0297075 0.0290083 0.0278406 0.0262291 0.0242048 0.0218005 0.0190537 0.016009 0.0127162 0.00922653 0.00559361 0.00187414 0.0288758 0.0281981 0.0270643 0.0254975 0.0235314 0.0211951 0.0185244 0.0155649 0.0123633 0.00897119 0.00543898 0.00182214 -0.00193626 -0.00577894 -0.00953273 -0.0131385 -0.0165418 -0.0196881 -0.0225274 -0.0250133 -0.027106 -0.0287753 -0.0299841 -0.03071 -0.00187414 -0.00559361 -0.00922653 -0.0127162 -0.016009 -0.0190537 -0.0218005 -0.0242048 -0.0262291 -0.0278406 -0.0290083 -0.0297075 -0.00182214 -0.00543898 -0.00897119 -0.0123633 -0.0155649 -0.0185244 -0.0211951 -0.0235314 -0.0254975 -0.0270643 -0.0281981 -0.0288758 -0.0309389 -0.03066 -0.0298668 -0.0285682 -0.0267747 -0.0244931 -0.0217521 -0.0185784 -0.0150081 -0.0110752 -0.00682741 -0.00236064 -0.0299249 -0.0296514 -0.0288823 -0.027621 -0.0258782 -0.0236696 -0.0210148 -0.0179423 -0.0144847 -0.0106796 -0.00657655 -0.00230078 -0.0290847 -0.0288187 -0.0280721 -0.0268434 -0.0251478 -0.0230024 -0.0204248 -0.0174413 -0.0140817 -0.010389 -0.00640469 -0.00221814 
</DataArray>
<DataArray Name="Stress_33" format="ascii" type="Float64">
0 0 0 0 0 0 0 0 0 0 0 0 0 0 0 0 0 0 0 0 0 0 0 0 0 0 0 0 0 0 0 0 0 0 0 0 0 0 0 0 0 0 0 0 0 0 0 0 0 0 0 0 0 0 0 0 0 0 0 0 0 0 0 0 0 0 0 0 0 0 0 0 0 0 0 0 0 0 0 0 0 0 0 0 0 0 0 0 0 0 0 0 0 0 0 0 0 0 0 0 0 0 0 0 0 0 0 0 0 0 0 0 0 0 0 0 0 0 0 0 0 0 0 0 0 0 0 0 0 0 0 0 0 0 0 0 0 0 0 0 0 0 0 0 0 0 0 0 0 0 0 0 0 0 0 0 0 0 0 0 0 0 0 0 0 0 0 0 0 0 0 0 0 0 0 0 0 0 0 0 0 0 0 0 0 0 0 0 0 0 0 0 0 0 0 0 0 0 0 0 0 0 0 0 0 0 0 0 0 0 0 0 0 0 0 0 0 0 0 0 0 0 0 0 0 0 0 0 0 0 0 0 0 0 0 0 0 0 0 0 0 0 0 0 0 0 0 0 0 0 0 0 0 0 0 0 0 0 0 0 0 0 0 0 0 0 0 0 0 0 0 0 0 0 0 0 0 0 0 0 0 0 0 0 0 0 0 0 
</DataArray>
</CellData>
<Points>
<DataArray NumberOfComponents="3" format="ascii" type="Float64">
0 0.09 0 -0.06364 0.06364 0 -0.005886 0.089807 0 -0.011747 0.08923 0 -0.017558 0.088271 0 -0.023294 0.086933 0 -0.02893 0.085224 0 -0.034442 0.083149 0 -0.039806 0.080719 0 -0.045 0.077942 0 -0.050001 0.074832 0 -0.054789 0.071402 0 -0.059341 0.067666 0 -0.065997 0.065997 0 0 0.093333 0 -0.006104 0.093133 0 -0.012182 0.092535 0 -0.018208 0.09154 0 -0.024156 0.090153 0 -0.030001 0.08838 0 -0.035717 0.086229 0 -0.04128 0.083708 0 -0.046667 0.080829 0 -0.051853 0.077604 0 -0.056818 0.074046 0 -0.061539 0.070172 0 -0.068354 0.068354 0 0 0.096667 0 -0.006322 0.09646 0 -0.012618 0.09584 0 -0.018859 0.094809 0 -0.025019 0.093373 0 -0.031072 0.091537 0 -0.036993 0.089308 0 -0.042755 0.086698 0 -0.048333 0.083716 0 -0.053705 0.080375 0 -0.058847 0.076691 0 -0.063737 0.072678 0 -0.070711 0.070711 0 0 0.1 0 -0.00654 0.099786 0 -0.013053 0.099144 0 -0.019509 0.098079 0 -0.025882 0.096593 0 -0.032144 0.094693 0 -0.038268 0.092388 0 -0.044229 0.089687 0 -0.05 0.086603 0 -0.055557 0.083147 0 -0.060876 0.079335 0 -0.065935 0.075184 0 -0.09 0 0 -0.067666 0.059341 0 -0.071402 0.054789 0 -0.074832 0.050001 0 -0.077942 0.045 0 -0.080719 0.039806 0 -0.083149 0.034442 0 -0.085224 0.02893 0 -0.086933 0.023294 0 -0.088271 0.017558 0 -0.08923 0.011747 0 -0.089807 0.005886 0 -0.093333 0 0 -0.070172 0.061539 0 -0.074046 0.056818 0 -0.077604 0.051853 0 -0.080829 0.046667 0 -0.083708 0.04128 0 -0.086229 0.035717 0 -0.08838 0.030001 0 -0.090153 0.024156 0 -0.09154 0.018208 0 -0.092535 0.012182 0 -0.093133 0.006104 0 -0.096667 0 0 -0.072678 0.063737 0 -0.076691 0.058847 0 -0.080375 0.053705 0 -0.083716 0.048333 0 -0.086698 0.042755 0 -0.089308 0.036993 0 -0.091537 0.031072 0 -0.093373 0.025019 0 -0.094809 0.018859 0 -0.09584 0.012618 0 -0.09646 0.006322 0 -0.1 0 0 -0.075184 0.065935 0 -0.079335 0.060876 0 -0.083147 0.055557 0 -0.086603 0.05 0 -0.089687 0.044229 0 -0.092388 0.038268 0 -0.094693 0.032144 0 -0.096593 0.025882 0 -0.098079 0.019509 0 -0.099144 0.013053 0 -0.099786 0.00654 0 -0.06364 -0.06364 0 -0.089807 -0.005886 0 -0.08923 -0.011747 0 -0.088271 -0.017558 0 -0.086933 -0.023294 0 -0.085224 -0.02893 0 -0.083149 -0.034442 0 -0.080719 -0.039806 0 -0.077942 -0.045 0 -0.074832 -0.050001 0 -0.071402 -0.054789 0 -0.067666 -0.059341 0 -0.065997 -0.065997 0 -0.093133 -0.006104 0 -0.092535 -0.012182 0 -0.09154 -0.018208 0 -0.090153 -0.024156 0 -0.08838 -0.030001 0 -0.086229 -0.035717 0 -0.083708 -0.04128 0 -0.080829 -0.046667 0 -0.077604 -0.051853 0 -0.074046 -0.056818 0 -0.070172 -0.061539 0 -0.068354 -0.068354 0 -0.09646 -0.006322 0 -0.09584 -0.012618 0 -0.094809 -0.018859 0 -0.093373 -0.025019 0 -0.091537 -0.031072 0 -0.089308 -0.036993 0 -0.086698 -0.042755 0 -0.083716 -0.048333 0 -0.080375 -0.053705 0 -0.076691 -0.058847 0 -0.072678 -0.063737 0 -0.070711 -0.070711 0 -0.099786 -0.00654 0 -0.099144 -0.013053 0 -0.098079 -0.019509 0 -0.096593 -0.025882 0 -0.094693 -0.032144 0 -0.092388 -0.038268 0 -0.089687 -0.044229 0 -0.086603 -0.05 0 -0.083147 -0.055557 0 -0.079335 -0.060876 0 -0.075184 -0.065935 0 0 -0.09 0 -0.059341 -0.067666 0 -0.054789 -0.071402 0 -0.050001 -0.074832 0 -0.045 -0.077942 0 -0.039806 -0.080719 0 -0.034442 -0.083149 0 -0.02893 -0.085224 0 -0.023294 -0.086933 0 -0.017558 -0.088271 0 -0.011747 -0.08923 0 -0.005886 -0.089807 0 0 -0.093333 0 -0.061539 -0.070172 0 -0.056818 -0.074046 0 -0.051853 -0.077604 0 -0.046667 -0.080829 0 -0.04128 -0.083708 0 -0.035717 -0.086229 0 -0.030001 -0.08838 0 -0.024156 -0.090153 0 -0.018208 -0.09154 0 -0.012182 -0.092535 0 -0.006104 -0.093133 0 0 -0.096667 0 -0.063737 -0.072678 0 -0.058847 -0.076691 0 -0.053705 -0.080375 0 -0.048333 -0.083716 0 -0.042755 -0.086698 0 -0.036993 -0.089308 0 -0.031072 -0.091537 0 -0.025019 -0.093373 0 -0.018859 -0.094809 0 -0.012618 -0.09584 0 -0.006322 -0.09646 0 0 -0.1 0 -0.065935 -0.075184 0 -0.060876 -0.079335 0 -0.055557 -0.083147 0 -0.05 -0.086603 0 -0.044229 -0.089687 0 -0.038268 -0.092388 0 -0.032144 -0.094693 0 -0.025882 -0.096593 0 -0.019509 -0.098079 0 -0.013053 -0.099144 0 -0.00654 -0.099786 0 0.06364 -0.06364 0 0.005886 -0.089807 0 0.011747 -0.08923 0 0.017558 -0.088271 0 0.023294 -0.086933 0 0.02893 -0.085224 0 0.034442 -0.083149 0 0.039806 -0.080719 0 0.045 -0.077942 0 0.050001 -0.074832 0 0.054789 -0.071402 0 0.059341 -0.067666 0 0.065997 -0.065997 0 0.006104 -0.093133 0 0.012182 -0.092535 0 0.018208 -0.09154 0 0.024156 -0.090153 0 0.030001 -0.08838 0 0.035717 -0.086229 0 0.04128 -0.083708 0 0.046667 -0.080829 0 0.051853 -0.077604 0 0.056818 -0.074046 0 0.061539 -0.070172 0 0.068354 -0.068354 0 0.006322 -0.09646 0 0.012618 -0.09584 0 0.018859 -0.094809 0 0.025019 -0.093373 0 0.031072 -0.091537 0 0.036993 -0.089308 0 0.042755 -0.086698 0 0.048333 -0.083716 0 0.053705 -0.080375 0 0.058847 -0.076691 0 0.063737 -0.072678 0 0.070711 -0.070711 0 0.00654 -0.099786 0 0.013053 -0.099144 0 0.019509 -0.098079 0 0.025882 -0.096593 0 0.032144 -0.094693 0 0.038268 -0.092388 0 0.044229 -0.089687 0 0.05 -0.086603 0 0.055557 -0.083147 0 0.060876 -0.079335 0 0.065935 -0.075184 0 0.09 0 0 0.067666 -0.059341 0 0.071402 -0.054789 0 0.074832 -0.050001 0 0.077942 -0.045 0 0.080719 -0.039806 0 0.083149 -0.034442 0 0.085224 -0.02893 0 0.086933 -0.023294 0 0.088271 -0.017558 0 0.08923 -0.011747 0 0.089807 -0.005886 0 0.093333 0 0 0.070172 -0.061539 0 0.074046 -0.056818 0 0.077604 -0.051853 0 0.080829 -0.046667 0 0.083708 -0.04128 0 0.086229 -0.035717 0 0.08838 -0.030001 0 0.090153 -0.024156 0 0.09154 -0.018208 0 0.092535 -0.012182 0 0.093133 -0.006104 0 0.096667 0 0 0.072678 -0.063737 0 0.076691 -0.058847 0 0.080375 -0.053705 0 0.083716 -0.048333 0 0.086698 -0.042755 0 0.089308 -0.036993 0 0.091537 -0.031072 0 0.093373 -0.025019 0 0.094809 -0.018859 0 0.09584 -0.012618 0 0.09646 -0.006322 0 0.1 0 0 0.075184 -0.065935 0 0.079335 -0.060876 0 0.083147 -0.055557 0 0.086603 -0.05 0 0.089687 -0.044229 0 0.092388 -0.038268 0 0.094693 -0.032144 0 0.096593 -0.025882 0 0.098079 -0.019509 0 0.099144 -0.013053 0 0.099786 -0.00654 0 0.06364 0.06364 0 0.089807 0.005886 0 0.08923 0.011747 0 0.088271 0.017558 0 0.086933 0.023294 0 0.085224 0.02893 0 0.083149 0.034442 0 0.080719 0.039806 0 0.077942 0.045 0 0.074832 0.050001 0 0.071402 0.054789 0 0.067666 0.059341 0 0.065997 0.065997 0 0.093133 0.006104 0 0.092535 0.012182 0 0.09154 0.018208 0 0.090153 0.024156 0 0.08838 0.030001 0 0.086229 0.035717 0 0.083708 0.04128 0 0.080829 0.046667 0 0.077604 0.051853 0 0.074046 0.056818 0 0.070172 0.061539 0 0.068354 0.068354 0 0.09646 0.006322 0 0.09584 0.012618 0 0.094809 0.018859 0 0.093373 0.025019 0 0.091537 0.031072 0 0.089308 0.036993 0 0.086698 0.042755 0 0.083716 0.048333 0 0.080375 0.053705 0 0.076691 0.058847 0 0.072678 0.063737 0 0.070711 0.070711 0 0.099786 0.00654 0 0.099144 0.013053 0 0.098079 0.019509 0 0.096593 0.025882 0 0.094693 0.032144 0 0.092388 0.038268 0 0.089687 0.044229 0 0.086603 0.05 0 0.083147 0.055557 0 0.079335 0.060876 0 0.075184 0.065935 0 0.059341 0.067666 0 0.054789 0.071402 0 0.050001 0.074832 0 0.045 0.077942 0 0.039806 0.080719 0 0.034442 0.083149 0 0.02893 0.085224 0 0.023294 0.086933 0 0.017558 0.088271 0 0.011747 0.08923 0 0.005886 0.089807 0 0.061539 0.070172 0 0.056818 0.074046 0 0.051853 0.077604 0 0.046667 0.080829 0 0.04128 0.083708 0 0.035717 0.086229 0 0.030001 0.08838 0 0.024156 0.090153 0 0.018208 0.09154 0 0.012182 0.092535 0 0.006104 0.093133 0 0.063737 0.072678 0 0.058847 0.076691 0 0.053705 0.080375 0 0.048333 0.083716 0 0.042755 0.086698 0 0.036993 0.089308 0 0.031072 0.091537 0 0.025019 0.093373 0 0.018859 0.094809 0 0.012618 0.09584 0 0.006322 0.09646 0 0.065935 0.075184 0 0.060876 0.079335 0 0.055557 0.083147 0 0.05 0.086603 0 0.044229 0.089687 0 0.038268 0.092388 0 0.032144 0.094693 0 0.025882 0.096593 0 0.019509 0.098079 0 0.013053 0.099144 0 0.00654 0.099786 0 
</DataArray>
</Points>
<Cells>
<DataArray Name="connectivity" format="ascii" type="Int64">