<?xml version="1.0"?>
<VTKFile byte_order="LittleEndian" type="UnstructuredGrid" version="0.1">
<UnstructuredGrid>
<Piece NumberOfCells="288" NumberOfPoints="384">
<PointData>
<DataArray Name="Warping_X" format="ascii" type="Float64">
-0.0267857 0.572499 0.0519316 0.12897 0.203135 0.273208 0.338061 0.396637 0.447996 0.491308 0.525883 0.551188 0.566795 0.617583 -0.0234198 0.0607711 0.143293 0.222712 0.29775 0.367193 0.429902 0.484858 0.53119 0.568125 0.595091 0.611661 0.664346 -0.0203022 0.0698615 0.158061 0.242946 0.323145 0.397351 0.46436 0.523071 0.572513 0.611909 0.640625 0.658191 0.712775 -0.0168267 0.0791363 0.173244 0.263807 0.349374 0.428533 0.49999 0.562588 0.615293 0.657242 0.68776 0.706374 4.62473e-10 0.568214 0.554061 0.530281 0.497334 0.455789 0.40637 0.349939 0.287469 0.220046 0.148832 0.0750609 4.62477e-10 0.612776 0.597359 0.571617 0.536015 0.49116 0.437859 0.377019 0.309692 0.237047 0.160328 0.0808568 4.62476e-10 0.659003 0.642287 0.614496 0.576138 0.527882 0.470543 0.405126 0.332766 0.254703 0.172271 0.0868728 4.62473e-10 0.706883 0.688816 0.658924 0.617717 0.565907 0.504397 0.434255 0.356676 0.272986 0.184631 0.0931055 -0.572499 -0.0750609 -0.148832 -0.220046 -0.287469 -0.349939 -0.40637 -0.455789 -0.497334 -0.530281 -0.554061 -0.568214 -0.617583 -0.0808568 -0.160328 -0.237047 -0.309692 -0.377019 -0.437859 -0.49116 -0.536015 -0.571617 -0.597359 -0.612776 -0.664346 -0.0868728 -0.172271 -0.254703 -0.332766 -0.405126 -0.470543 -0.527882 -0.576138 -0.614496 -0.642287 -0.659003 -0.712775 -0.0931055 -0.184631 -0.272986 -0.356676 -0.434255 -0.504397 -0.565907 -0.617717 -0.658924 -0.688816 -0.706883 0.0267857 -0.566795 -0.551188 -0.525883 -0.491308 -0.447996 -0.396637 -0.338061 -0.273208 -0.203135 -0.12897 -0.0519316 0.0234198 -0.611661 -0.595091 -0.568125 -0.53119 -0.484858 -0.429902 -0.367193 -0.29775 -0.222712 -0.143293 -0.0607711 0.0203022 -0.658191 -0.640625 -0.611909 -0.572513 -0.523071 -0.46436 -0.397351 -0.323145 -0.242946 -0.158061 -0.0698615 0.0168267 -0.706374 -0.68776 -0.657242 -0.615293 -0.562588 -0.49999 -0.428533 -0.349374 -0.263807 -0.173244 -0.0791362 0.628388 0.104821 0.181834 0.256419 0.327232 0.392995 0.452515 0.504722 0.54867 0.583564 0.608777 0.623807 0.674025 0.107809 0.190977 0.27154 0.348025 0.419068 0.483383 0.539815 0.587363 0.625145 0.65249 0.668888 0.721285 0.110964 0.200563 0.287294 0.369641 0.446132 0.515406 0.576213 0.627449 0.668216 0.697777 0.715577 0.770178 0.114393 0.210549 0.303663 0.392075 0.474201 0.548577 0.61389 0.668963 0.712806 0.744635 0.763886 -2.46878e-09 0.62239 0.605908 0.579172 0.542651 0.496936 0.442789 0.381123 0.312975 0.239508 0.161968 0.0816772 -2.47121e-09 0.667775 0.650229 0.621662 0.58255 0.533526 0.47544 0.409256 0.336097 0.257217 0.173952 0.0877222 -2.46889e-09 0.714769 0.696125 0.665643 0.623842 0.571423 0.509246 0.438381 0.360043 0.27556 0.18637 0.0939798 -2.46275e-09 0.763383 0.74359 0.711141 0.666561 0.610596 0.544199 0.468511 0.384807 0.294517 0.199195 0.10045 -0.628388 -0.0816772 -0.161968 -0.239508 -0.312975 -0.381123 -0.442789 -0.496936 -0.542651 -0.579172 -0.605908 -0.62239 -0.674025 -0.0877222 -0.173952 -0.257217 -0.336097 -0.409256 -0.47544 -0.533526 -0.58255 -0.621662 -0.650229 -0.667775 -0.721285 -0.0939799 -0.18637 -0.27556 -0.360043 -0.438381 -0.509246 -0.571423 -0.623842 -0.665643 -0.696125 -0.714769 -0.770178 -0.10045 -0.199195 -0.294517 -0.384807 -0.468511 -0.544199 -0.610596 -0.666561 -0.711141 -0.74359 -0.763383 -0.623807 -0.608777 -0.583564 -0.54867 -0.504722 -0.452515 -0.392995 -0.327232 -0.256419 -0.181834 -0.104821 -0.668888 -0.65249 -0.625145 -0.587363 -0.539815 -0.483383 -0.419068 -0.348025 -0.27154 -0.190977 -0.107809 -0.715577 -0.697777 -0.668216 -0.627449 -0.576213 -0.515406 -0.446132 -0.369641 -0.287294 -0.200563 -0.110964 -0.763886 -0.744635 -0.712806 -0.668963 -0.61389 -0.548577 -0.474201 -0.392075 -0.303663 -0.210549 -0.114393 
</DataArray>
<DataArray Name="Warping_Y" format="ascii" type="Float64">
-0.60038 0.0298034 -0.5897 -0.569459 -0.53988 -0.501392 -0.454609 -0.400231 -0.339147 -0.272302 -0.200802 -0.125793 -0.0485096 0.0295697 -0.645684 -0.634444 -0.612891 -0.581301 -0.540137 -0.490032 -0.431776 -0.366278 -0.294598 -0.217902 -0.137414 -0.0544791 0.0293167 -0.692725 -0.680866 -0.657966 -0.624287 -0.580352 -0.526819 -0.46451 -0.394456 -0.31776 -0.235653 -0.149499 -0.0606867 0.0290422 -0.741446 -0.728943 -0.704664 -0.668852 -0.622033 -0.564932 -0.498462 -0.423664 -0.34177 -0.254074 -0.162026 -0.0671333 0.623275 0.107848 0.184328 0.258002 0.327641 0.392107 0.450303 0.501298 0.544218 0.578377 0.60318 0.618227 0.666762 0.11334 0.195442 0.274546 0.349311 0.418524 0.481028 0.535775 0.581874 0.618548 0.645188 0.661343 0.711923 0.119032 0.206982 0.291701 0.371809 0.44595 0.512902 0.571578 0.620961 0.660247 0.688798 0.706117 0.758715 0.12492 0.21892 0.309485 0.395112 0.474363 0.545952 0.608664 0.661471 0.703482 0.733985 0.75251 0.0298034 0.618227 0.60318 0.578377 0.544218 0.501298 0.450303 0.392107 0.327641 0.258002 0.184328 0.107848 0.0295697 0.661343 0.645188 0.618548 0.581874 0.535775 0.481028 0.418524 0.349311 0.274546 0.195442 0.11334 0.0293167 0.706117 0.688798 0.660247 0.620961 0.571578 0.512902 0.44595 0.371809 0.291701 0.206982 0.119032 0.0290422 0.75251 0.733985 0.703482 0.661471 0.608664 0.545952 0.474363 0.395112 0.309485 0.21892 0.12492 -0.60038 -0.0485096 -0.125793 -0.200802 -0.272302 -0.339147 -0.400231 -0.454609 -0.501392 -0.53988 -0.569459 -0.5897 -0.645684 -0.0544791 -0.137414 -0.217902 -0.294598 -0.366278 -0.431776 -0.490032 -0.540137 -0.581301 -0.612891 -0.634444 -0.692725 -0.0606867 -0.149499 -0.235653 -0.31776 -0.394456 -0.46451 -0.526819 -0.580352 -0.624287 -0.657966 -0.680866 -0.741446 -0.0671333 -0.162026 -0.254074 -0.34177 -0.423664 -0.498462 -0.564932 -0.622033 -0.668852 -0.704664 -0.728943 -0.0298218 -0.600719 -0.590364 -0.569478 -0.538492 -0.498038 -0.44885 -0.391868 -0.328102 -0.258738 -0.185011 -0.108256 -0.0295973 -0.64595 -0.634574 -0.61188 -0.578336 -0.534594 -0.481482 -0.419967 -0.351179 -0.276375 -0.196874 -0.114132 -0.0293494 -0.692771 -0.680326 -0.655754 -0.61956 -0.572426 -0.515221 -0.449035 -0.375051 -0.294597 -0.209144 -0.120196 -0.0290755 -0.741155 -0.727619 -0.701128 -0.662172 -0.611512 -0.550107 -0.479066 -0.399708 -0.313431 -0.221799 -0.126448 0.577537 0.0488814 0.126444 0.201512 0.272745 0.338901 0.398782 0.451367 0.495702 0.531036 0.556715 0.572305 0.624759 0.0552166 0.138795 0.219687 0.29643 0.367695 0.432218 0.488853 0.53662 0.574671 0.602338 0.619125 0.673641 0.0617868 0.151601 0.238495 0.320957 0.397507 0.466807 0.527662 0.578963 0.619826 0.64955 0.667592 0.724168 0.068596 0.164844 0.257966 0.34632 0.428333 0.502595 0.567776 0.622748 0.666534 0.698353 0.71769 -0.0298218 0.572305 0.556715 0.531036 0.495702 0.451367 0.398782 0.338901 0.272745 0.201512 0.126444 0.0488814 -0.0295973 0.619125 0.602338 0.574671 0.53662 0.488853 0.432218 0.367695 0.29643 0.219687 0.138795 0.0552166 -0.0293494 0.667592 0.64955 0.619826 0.578963 0.527662 0.466807 0.397507 0.320957 0.238495 0.151601 0.0617868 -0.0290755 0.71769 0.698353 0.666534 0.622748 0.567776 0.502595 0.428333 0.34632 0.257966 0.164844 0.068596 -0.108256 -0.185011 -0.258738 -0.328102 -0.391868 -0.44885 -0.498038 -0.538492 -0.569478 -0.590364 -0.600719 -0.114132 -0.196874 -0.276375 -0.351179 -0.419967 -0.481482 -0.534594 -0.578336 -0.61188 -0.634574 -0.64595 -0.120196 -0.209144 -0.294597 -0.375051 -0.449035 -0.515221 -0.572426 -0.61956 -0.655754 -0.680326 -0.692771 -0.126448 -0.221799 -0.313431 -0.399708 -0.479066 -0.550107 -0.611512 -0.662172 -0.701128 -0.727619 -0.741155 
</DataArray>
<DataArray Name="Warping_Z" format="ascii" type="Float64">
0 0 0 0 0 0 0 0 0 0 0 0 0 0 0 0 0 0 0 0 0 0 0 0 0 0 0 0 0 0 0 0 0 0 0 0 0 0 0 0 0 0 0 0 0 0 0 0 0 0 0 0 0 0 0 0 0 0 0 0 0 0 0 0 0 0 0 0 0 0 0 0 0 0 0 0 0 0 0 0 0 0 0 0 0 0 0 0 0 0 0 0 0 0 0 0 0 0 0 0 0 0 0 0 0 0 0 0 0 0 0 0 0 0 0 0 0 0 0 0 0 0 0 0 0 0 0 0 0 0 0 0 0 0 0 0 0 0 0 0 0 0 0 0 0 0 0 0 0 0 0 0 0 0 0 0 0 0 0 0 0 0 0 0 0 0 0 0 0 0 0 0 0 0 0 0 0 0 0 0 0 0 0 0 0 0 0 0 0 0 0 0 0 0 0 0 0 0 0 0 0 0 0 0 0 0 0 0 0 0 0 0 0 0 0 0 0 0 0 0 0 0 0 0 0 0 0 0 0 0 0 0 0 0 0 0 0 0 0 0 0 0 0 0 0 0 0 0 0 0 0 0 0 0 0 0 0 0 0 0 0 0 0 0 0 0 0 0 0 0 0 0 0 0 0 0 0 0 0 0 0 0 0 0 0 0 0 0 0 0 0 0 0 0 0 0 0 0 0 0 0 0 0 0 0 0 0 0 0 0 0 0 0 0 0 0 0 0 0 0 0 0 0 0 0 0 0 0 0 0 0 0 0 0 0 0 0 0 0 0 0 0 0 0 0 0 0 0 0 0 0 0 0 0 0 0 0 0 0 0 0 0 0 0 0 0 0 0 0 0 0 0 0 0 0 0 0 0 0 0 0 0 0 0 
</DataArray>
</PointData>
<CellData>
<DataArray Name="MaterialId" format="ascii" type="Float64">
1 1 1 1 1 1 1 1 1 1 1 1 1 1 1 1 1 1 1 1 1 1 1 1 1 1 1 1 1 1 1 1 1 1 1 1 1 1 1 1 1 1 1 1 1 1 1 1 1 1 1 1 1 1 1 1 1 1 1 1 1 1 1 1 1 1 1 1 1 1 1 1 1 1 1 1 1 1 1 1 1 1 1 1 1 1 1 1 1 1 1 1 1 1 1 1 1 1 1 1 1 1 1 1 1 1 1 1 1 1 1 1 1 1 1 1 1 1 1 1 1 1 1 1 1 1 1 1 1 1 1 1 1 1 1 1 1 1 1 1 1 1 1 1 2 2 2 2 2 2 2 2 2 2 2 2 2 2 2 2 2 2 2 2 2 2 2 2 2 2 2 2 2 2 2 2 2 2 2 2 2 2 2 2 2 2 2 2 2 2 2 2 2 2 2 2 2 2 2 2 2 2 2 2 2 2 2 2 2 2 2 2 2 2 2 2 2 2 2 2 2 2 2 2 2 2 2 2 2 2 2 2 2 2 2 2 2 2 2 2 2 2 2 2 2 2 2 2 2 2 2 2 2 2 2 2 2 2 2 2 2 2 2 2 2 2 2 2 2 2 2 2 2 2 2 2 2 2 2 2 2 2 2 2 2 2 2 2 
</DataArray>
<DataArray Name="FiberAngle" format="ascii" type="Float64">
0 0 0 0 0 0 0 0 0 0 0 0 0 0 0 0 0 0 0 0 0 0 0 0 0 0 0 0 0 0 0 0 0 0 0 0 0 0 0 0 0 0 0 0 0 0 0 0 0 0 0 0 0 0 0 0 0 0 0 0 0 0 0 0 0 0 0 0 0 0 0 0 0 0 0 0 0 0 0 0 0 0 0 0 0 0 0 0 0 0 0 0 0 0 0 0 0 0 0 0 0 0 0 0 0 0 0 0 0 0 0 0 0 0 0 0 0 0 0 0 0 0 0 0 0 0 0 0 0 0 0 0 0 0 0 0 0 0 0 0 0 0 0 0 0 0 0 0 0 0 0 0 0 0 0 0 0 0 0 0 0 0 0 0 0 0 0 0 0 0 0 0 0 0 0 0 0 0 0 0 0 0 0 0 0 0 0 0 0 0 0 0 0 0 0 0 0 0 0 0 0 0 0 0 0 0 0 0 0 0 0 0 0 0 0 0 0 0 0 0 0 0 0 0 0 0 0 0 0 0 0 0 0 0 0 0 0 0 0 0 0 0 0 0 0 0 0 0 0 0 0 0 0 0 0 0 0 0 0 0 0 0 0 0 0 0 0 0 0 0 0 0 0 0 0 0 0 0 0 0 0 0 0 0 0 0 0 0 
</DataArray>
<DataArray Name="Strain_11" format="ascii" type="Float64">
-13.6325 -13.5768 -13.4594 -13.2835 -13.0504 -12.7611 -12.4168 -12.0192 -11.5701 -11.0715 -10.5256 -9.93502 -14.0764 -14.0148 -13.8939 -13.7144 -13.4761 -13.18 -12.8276 -12.4202 -11.9597 -11.448 -10.8871 -10.2798 -14.5182 -14.4559 -14.3327 -14.149 -13.9049 -13.6017 -13.2405 -12.8228 -12.3502 -11.8246 -11.2484 -10.6236 -9.30214 -8.62993 -7.92118 -7.17916 -6.40694 -5.60777 -4.78533 -3.94265 -3.0837 -2.21176 -1.33076 -0.444194 -9.62828 -8.93551 -8.20448 -7.43817 -6.64013 -5.81357 -4.96191 -4.08914 -3.19879 -2.2947 -1.38073 -0.460909 -9.95307 -9.23942 -8.48563 -7.69509 -6.87106 -6.01696 -5.13665 -4.23371 -3.31235 -2.37656 -1.43001 -0.477373 0.444194 1.33076 2.21176 3.0837 3.94265 4.78533 5.60777 6.40694 7.17916 7.92118 8.62993 9.30214 0.460909 1.38073 2.2947 3.19879 4.08914 4.96191 5.81357 6.64013 7.43817 8.20448 8.93551 9.62828 0.477373 1.43001 2.37656 3.31235 4.23371 5.13665 6.01696 6.87106 7.69509 8.48563 9.23942 9.95307 9.93502 10.5256 11.0715 11.5701 12.0192 12.4168 12.7611 13.0504 13.2835 13.4594 13.5768 13.6325 10.2798 10.8871 11.448 11.9597 12.4202 12.8276 13.18 13.4761 13.7144 13.8939 14.0148 14.0764 10.6236 11.2484 11.8246 12.3502 12.8228 13.2405 13.6017 13.9049 14.149 14.3327 14.4559 14.5182 13.5303 13.4662 13.3525 13.1813 12.954 12.6716 12.3352 11.9462 11.506 11.0165 10.4797 9.89778 14.0726 14.0151 13.895 13.7146 13.4758 13.1791 12.826 12.4179 11.9566 11.4442 10.8827 10.2747 14.6186 14.5599 14.433 14.2445 13.9944 13.684 13.3147 12.8882 12.4064 11.8716 11.2862 10.6527 9.27306 8.60827 7.90608 7.1696 6.40188 5.60611 4.78603 3.94472 3.08628 2.21414 1.33241 0.444781 9.6228 8.92972 8.19853 7.43222 6.63438 5.80816 4.957 4.08491 3.19535 2.29216 1.37917 0.460385 9.97398 9.25305 8.49299 7.69728 6.86926 6.01237 5.13045 4.22698 3.30604 2.37146 1.42671 0.476232 -0.444781 -1.33241 -2.21414 -3.08628 -3.94472 -4.78603 -5.60611 -6.40188 -7.1696 -7.90608 -8.60827 -9.27306 -0.460385 -1.37917 -2.29216 -3.19535 -4.08491 -4.957 -5.80816 -6.63438 -7.43222 -8.19853 -8.92972 -9.6228 -0.476232 -1.42671 -2.37146 -3.30604 -4.22698 -5.13045 -6.01237 -6.86926 -7.69728 -8.49299 -9.25305 -9.97398 -9.89778 -10.4797 -11.0165 -11.506 -11.9462 -12.3352 -12.6716 -12.954 -13.1813 -13.3525 -13.4662 -13.5303 -10.2747 -10.8827 -11.4442 -11.9566 -12.4179 -12.826 -13.1791 -13.4758 -13.7146 -13.895 -14.0151 -14.0726 -10.6527 -11.2862 -11.8716 -12.4064 -12.8882 -13.3147 -13.684 -13.9944 -14.2445 -14.433 -14.5599 -14.6186 
</DataArray>
<DataArray Name="Strain_22" format="ascii" type="Float64">
-13.5681 -13.5113 -13.3952 -13.224 -12.996 -12.7128 -12.3755 -11.9853 -11.5438 -11.053 -10.5145 -9.93084 -14.0771 -14.0145 -13.8957 -13.7156 -13.4769 -13.1805 -12.8275 -12.4198 -11.9587 -11.4465 -10.8853 -10.2775 -14.5828 -14.5167 -14.3935 -14.2051 -13.9561 -13.6469 -13.279 -12.854 -12.374 -11.8411 -11.2575 -10.6262 -9.3042 -8.63733 -7.93291 -7.19399 -6.42378 -5.62542 -4.80247 -3.95842 -3.09694 -2.22186 -1.33702 -0.446331 -9.62572 -8.93271 -8.20148 -7.43523 -6.63713 -5.81072 -4.95943 -4.08686 -3.19695 -2.29337 -1.37994 -0.460619 -9.94956 -9.23077 -8.47293 -7.67937 -6.85355 -5.99885 -5.11897 -4.21774 -3.29889 -2.36625 -1.42368 -0.475198 0.446331 1.33702 2.22186 3.09694 3.95842 4.80247 5.62542 6.42378 7.19399 7.93291 8.63733 9.3042 0.460619 1.37994 2.29337 3.19695 4.08686 4.95943 5.81072 6.63713 7.43523 8.20148 8.93271 9.62572 0.475198 1.42368 2.36625 3.29889 4.21774 5.11897 5.99885 6.85355 7.67937 8.47293 9.23077 9.94956 9.93084 10.5145 11.053 11.5438 11.9853 12.3755 12.7128 12.996 13.224 13.3952 13.5113 13.5681 10.2775 10.8853 11.4465 11.9587 12.4198 12.8275 13.1805 13.4769 13.7156 13.8957 14.0145 14.0771 10.6262 11.2575 11.8411 12.374 12.854 13.279 13.6469 13.9561 14.2051 14.3935 14.5167 14.5828 13.5797 13.5364 13.4169 13.242 13.0097 12.7214 12.3784 11.9821 11.5345 11.0377 10.4936 9.90501 14.0753 14.0123 13.8912 13.712 13.4739 13.1782 12.826 12.4192 11.9589 11.4475 10.8871 10.28 14.5675 14.4901 14.3684 14.1843 13.94 13.6363 13.2746 12.8562 12.3829 11.8564 11.279 10.6531 9.27421 8.60415 7.89768 7.15792 6.38811 5.59141 4.77133 3.93126 3.07473 2.20539 1.3269 0.442916 9.62884 8.93631 8.20543 7.43935 6.64127 5.81471 4.96311 4.0901 3.19961 2.29535 1.38116 0.461031 9.98106 9.26578 8.51023 7.71766 6.89149 6.03508 5.15217 4.24672 3.3226 2.38384 1.43449 0.478847 -0.442916 -1.3269 -2.20539 -3.07473 -3.93126 -4.77133 -5.59141 -6.38811 -7.15792 -7.89768 -8.60415 -9.27421 -0.461031 -1.38116 -2.29535 -3.19961 -4.0901 -4.96311 -5.81471 -6.64127 -7.43935 -8.20543 -8.93631 -9.62884 -0.478847 -1.43449 -2.38384 -3.3226 -4.24672 -5.15217 -6.03508 -6.89149 -7.71766 -8.51023 -9.26578 -9.98106 -9.90501 -10.4936 -11.0377 -11.5345 -11.9821 -12.3784 -12.7214 -13.0097 -13.242 -13.4169 -13.5364 -13.5797 -10.28 -10.8871 -11.4475 -11.9589 -12.4192 -12.826 -13.1782 -13.4739 -13.712 -13.8912 -14.0123 -14.0753 -10.6531 -11.279 -11.8564 -12.3829 -12.8562 -13.2746 -13.6363 -13.94 -14.1843 -14.3684 -14.4901 -14.5675 
</DataArray>
<DataArray Name="Strain_12" format="ascii" type="Float64">
0.00307044 -0.0148248 -0.0212389 -0.028941 -0.0359497 -0.041621 -0.0462891 -0.0495963 -0.0515173 -0.0521605 -0.0514725 -0.0495084 -0.0257734 0.00251983 0.00122179 0.00137279 0.00182986 0.00187036 0.00215019 0.00223434 0.00203844 0.00202216 0.00169673 0.00143887 0.0227444 0.0119649 0.0204236 0.0279255 0.0344834 0.0401082 0.0443456 0.0475199 0.049333 0.0498036 0.0489924 0.047022 -0.046517 -0.0425428 -0.037956 -0.032761 -0.027293 -0.021988 -0.0167295 -0.0120719 -0.00802548 -0.00481779 -0.00263148 -0.00148486 0.00103661 0.000509892 0.000139061 -0.000494389 -0.00103984 -0.00147029 -0.00200758 -0.00244902 -0.00280472 -0.00311355 -0.00328414 -0.00341474 0.0439626 0.0400232 0.0353126 0.0302296 0.0249191 0.0194599 0.014393 0.00971601 0.00575194 0.00260546 0.000382924 -0.000701898 -0.00148486 -0.00263148 -0.00481779 -0.00802548 -0.0120719 -0.0167295 -0.021988 -0.027293 -0.032761 -0.037956 -0.0425428 -0.046517 -0.00341474 -0.00328414 -0.00311355 -0.00280472 -0.00244902 -0.00200758 -0.00147029 -0.00103984 -0.000494389 0.000139061 0.000509892 0.00103661 -0.000701898 0.000382924 0.00260546 0.00575194 0.00971601 0.014393 0.0194599 0.0249191 0.0302296 0.0353126 0.0400232 0.0439626 -0.0495084 -0.0514725 -0.0521605 -0.0515173 -0.0495963 -0.0462891 -0.041621 -0.0359497 -0.028941 -0.0212389 -0.0148248 0.00307044 0.00143887 0.00169673 0.00202216 0.00203844 0.00223434 0.00215019 0.00187036 0.00182986 0.00137279 0.00122179 0.00251983 -0.0257734 0.047022 0.0489924 0.0498036 0.049333 0.0475199 0.0443456 0.0401082 0.0344834 0.0279255 0.0204236 0.0119649 0.0227444 0.0040742 -0.0155002 -0.0201873 -0.0285777 -0.0351225 -0.0409578 -0.0455009 -0.0489084 -0.0510578 -0.0518496 -0.0514244 -0.049864 -0.0311766 0.00672624 0.00188693 0.00341952 0.00395864 0.00470901 0.00487964 0.00495736 0.00501179 0.0045049 0.00407312 0.00323937 0.0277042 0.0112622 0.0229659 0.0311234 0.0383434 0.0442787 0.049211 0.0524435 0.0542415 0.0545837 0.0534444 0.0509056 -0.0471957 -0.0437067 -0.0394048 -0.0347486 -0.0298628 -0.0247776 -0.0200989 -0.01569 -0.0119684 -0.00902874 -0.00696446 -0.00593916 0.00231842 0.00133249 6.92576e-06 -0.00108935 -0.00233428 -0.00363837 -0.00472051 -0.00575179 -0.0066293 -0.00729 -0.00779013 -0.00800019 0.0471919 0.0424547 0.0369978 0.0308947 0.0245429 0.018367 0.0123072 0.00689528 0.00220911 -0.00147616 -0.00396975 -0.00529563 -0.00593916 -0.00696446 -0.00902874 -0.0119684 -0.01569 -0.0200989 -0.0247776 -0.0298628 -0.0347486 -0.0394048 -0.0437067 -0.0471957 -0.00800019 -0.00779013 -0.00729 -0.0066293 -0.00575178 -0.00472051 -0.00363836 -0.00233427 -0.00108934 6.93446e-06 0.0013325 0.00231843 -0.00529563 -0.00396975 -0.00147616 0.00220911 0.00689529 0.0123072 0.018367 0.024543 0.0308947 0.0369979 0.0424547 0.0471919 -0.049864 -0.0514244 -0.0518496 -0.0510578 -0.0489083 -0.0455009 -0.0409578 -0.0351225 -0.0285777 -0.0201873 -0.0155002 0.00407421 0.00323938 0.00407313 0.00450491 0.0050118 0.00495737 0.00487965 0.00470902 0.00395865 0.00341954 0.00188695 0.00672625 -0.0311766 0.0509056 0.0534444 0.0545837 0.0542415 0.0524435 0.049211 0.0442787 0.0383434 0.0311234 0.0229659 0.0112622 0.0277042 
</DataArray>
<DataArray Name="Strain_13" format="ascii" type="Float64">
0 0 0 0 0 0 0 0 0 0 0 0 0 0 0 0 0 0 0 0 0 0 0 0 0 0 0 0 0 0 0 0 0 0 0 0 0 0 0 0 0 0 0 0 0 0 0 0 0 0 0 0 0 0 0 0 0 0 0 0 0 0 0 0 0 0 0 0 0 0 0 0 0 0 0 0 0 0 0 0 0 0 0 0 0 0 0 0 0 0 0 0 0 0 0 0 0 0 0 0 0 0 0 0 0 0 0 0 0 0 0 0 0 0 0 0 0 0 0 0 0 0 0 0 0 0 0 0 0 0 0 0 0 0 0 0 0 0 0 0 0 0 0 0 0 0 0 0 0 0 0 0 0 0 0 0 0 0 0 0 0 0 0 0 0 0 0 0 0 0 0 0 0 0 0 0 0 0 0 0 0 0 0 0 0 0 0 0 0 0 0 0 0 0 0 0 0 0 0 0 0 0 0 0 0 0 0 0 0 0 0 0 0 0 0 0 0 0 0 0 0 0 0 0 0 0 0 0 0 0 0 0 0 0 0 0 0 0 0 0 0 0 0 0 0 0 0 0 0 0 0 0 0 0 0 0 0 0 0 0 0 0 0 0 0 0 0 0 0 0 0 0 0 0 0 0 0 0 0 0 0 0 0 0 0 0 0 0 
</DataArray>
<DataArray Name="Strain_23" format="ascii" type="Float64">
0 0 0 0 0 0 0 0 0 0 0 0 0 0 0 0 0 0 0 0 0 0 0 0 0 0 0 0 0 0 0 0 0 0 0 0 0 0 0 0 0 0 0 0 0 0 0 0 0 0 0 0 0 0 0 0 0 0 0 0 0 0 0 0 0 0 0 0 0 0 0 0 0 0 0 0 0 0 0 0 0 0 0 0 0 0 0 0 0 0 0 0 0 0 0 0 0 0 0 0 0 0 0 0 0 0 0 0 0 0 0 0 0 0 0 0 0 0 0 0 0 0 0 0 0 0 0 0 0 0 0 0 0 0 0 0 0 0 0 0 0 0 0 0 0 0 0 0 0 0 0 0 0 0 0 0 0 0 0 0 0 0 0 0 0 0 0 0 0 0 0 0 0 0 0 0 0 0 0 0 0 0 0 0 0 0 0 0 0 0 0 0 0 0 0 0 0 0 0 0 0 0 0 0 0 0 0 0 0 0 0 0 0 0 0 0 0 0 0 0 0 0 0 0 0 0 0 0 0 0 0 0 0 0 0 0 0 0 0 0 0 0 0 0 0 0 0 0 0 0 0 0 0 0 0 0 0 0 0 0 0 0 0 0 0 0 0 0 0 0 0 0 0 0 0 0 0 0 0 0 0 0 0 0 0 0 0 0 
</DataArray>
<DataArray Name="Strain_33" format="ascii" type="Float64">
0.0915682 0.0911763 0.090394 0.0892242 0.0876725 0.0857455 0.0834513 0.0807995 0.0778018 0.074471 0.0708215 0.0668688 0.0948982 0.094492 0.093681 0.0924687 0.0908608 0.0888635 0.0864858 0.0837377 0.080631 0.077179 0.0733968 0.0693003 0.0982283 0.0978075 0.096968 0.0957135 0.094049 0.0919815 0.0895202 0.086676 0.0834602 0.079887 0.075972 0.0717317 0.0626292 0.0581217 0.0533652 0.0483802 0.0431882 0.0378112 0.0322725 0.0265952 0.020804 0.0149237 0.00897975 0.0029975 0.0649067 0.0602352 0.0553058 0.0501395 0.0447587 0.0391862 0.0334457 0.027562 0.0215605 0.0154668 0.0093065 0.0031065 0.0671843 0.0623487 0.0572462 0.0518988 0.0463293 0.0405613 0.0346192 0.0285292 0.0223173 0.0160097 0.00963325 0.0032155 -0.0029975 -0.00897975 -0.0149237 -0.020804 -0.0265952 -0.0322725 -0.0378112 -0.0431882 -0.0483802 -0.0533653 -0.0581217 -0.0626292 -0.0031065 -0.0093065 -0.0154668 -0.0215605 -0.027562 -0.0334457 -0.0391862 -0.0447587 -0.0501395 -0.0553058 -0.0602353 -0.0649067 -0.0032155 -0.00963325 -0.0160097 -0.0223173 -0.0285293 -0.0346192 -0.0405612 -0.0463293 -0.0518988 -0.0572462 -0.0623487 -0.0671843 -0.0668688 -0.0708215 -0.074471 -0.0778018 -0.0807995 -0.0834513 -0.0857455 -0.0876725 -0.0892242 -0.090394 -0.0911762 -0.0915682 -0.0693003 -0.0733967 -0.077179 -0.080631 -0.0837377 -0.0864858 -0.0888635 -0.0908607 -0.0924688 -0.093681 -0.094492 -0.0948983 -0.0717317 -0.075972 -0.079887 -0.0834602 -0.086676 -0.0895203 -0.0919815 -0.094049 -0.0957135 -0.096968 -0.0978075 -0.0982283 -0.0915682 -0.0911763 -0.090394 -0.0892242 -0.0876725 -0.0857455 -0.0834513 -0.0807995 -0.0778018 -0.074471 -0.0708215 -0.0668688 -0.0948982 -0.094492 -0.093681 -0.0924687 -0.0908608 -0.0888635 -0.0864858 -0.0837377 -0.080631 -0.077179 -0.0733968 -0.0693003 -0.0982283 -0.0978075 -0.096968 -0.0957135 -0.094049 -0.0919815 -0.0895202 -0.086676 -0.0834602 -0.079887 -0.075972 -0.0717317 -0.0626292 -0.0581217 -0.0533652 -0.0483802 -0.0431882 -0.0378112 -0.0322725 -0.0265952 -0.020804 -0.0149237 -0.00897975 -0.0029975 -0.0649067 -0.0602352 -0.0553058 -0.0501395 -0.0447587 -0.0391862 -0.0334457 -0.027562 -0.0215605 -0.0154668 -0.0093065 -0.0031065 -0.0671843 -0.0623487 -0.0572462 -0.0518988 -0.0463293 -0.0405613 -0.0346192 -0.0285292 -0.0223173 -0.0160097 -0.00963325 -0.0032155 0.0029975 0.00897975 0.0149237 0.020804 0.0265952 0.0322725 0.0378112 0.0431882 0.0483802 0.0533653 0.0581217 0.0626292 0.0031065 0.0093065 0.0154668 0.0215605 0.027562 0.0334457 0.0391862 0.0447587 0.0501395 0.0553058 0.0602353 0.0649067 0.0032155 0.00963325 0.0160097 0.0223173 0.0285293 0.0346192 0.0405612 0.0463293 0.0518988 0.0572462 0.0623487 0.0671843 0.0668688 0.0708215 0.074471 0.0778018 0.0807995 0.0834513 0.0857455 0.0876725 0.0892242 0.090394 0.0911762 0.0915682 0.0693003 0.0733967 0.077179 0.080631 0.0837377 0.0864858 0.0888635 0.0908607 0.0924688 0.093681 0.094492 0.0948983 0.0717317 0.075972 0.079887 0.0834602 0.086676 0.0895203 0.0919815 0.094049 0.0957135 0.096968 0.0978075 0.0982283 
</DataArray>
<DataArray Name="Stress_11" format="ascii" type="Float64">
-1889.07 -1881.32 -1865.07 -1840.8 -1808.61 -1768.65 -1721.09 -1666.15 -1604.06 -1535.12 -1459.62 -1377.89 -1952.44 -1943.87 -1927.16 -1902.24 -1869.18 -1828.1 -1779.21 -1722.69 -1658.8 -1587.81 -1510.01 -1425.76 -2015.48 -2006.74 -1989.65 -1964.03 -1930.05 -1887.82 -1837.54 -1779.41 -1713.65 -1640.55 -1560.42 -1473.58 -1290.28 -1197.19 -1099.01 -996.173 -889.121 -778.296 -664.209 -547.29 -428.081 -307.055 -184.753 -61.6697 -1335.39 -1239.29 -1137.89 -1031.6 -920.914 -806.273 -688.156 -567.108 -443.627 -318.241 -191.487 -63.9208 -1380.41 -1281.28 -1176.62 -1066.88 -952.54 -834.059 -711.971 -586.78 -459.054 -329.346 -198.169 -66.152 61.6697 184.753 307.055 428.081 547.29 664.209 778.296 889.121 996.173 1099.01 1197.19 1290.28 63.9208 191.487 318.241 443.627 567.108 688.156 806.273 920.914 1031.6 1137.89 1239.29 1335.39 66.152 198.169 329.346 459.054 586.78 711.971 834.059 952.54 1066.88 1176.62 1281.28 1380.41 1377.89 1459.62 1535.12 1604.06 1666.15 1721.09 1768.65 1808.61 1840.8 1865.07 1881.32 1889.07 1425.76 1510.01 1587.81 1658.8 1722.69 1779.21 1828.1 1869.18 1902.24 1927.16 1943.87 1952.44 1473.58 1560.42 1640.55 1713.65 1779.41 1837.54 1887.82 1930.05 1964.03 1989.65 2006.74 2015.48 0.0187804 0.0186972 0.0185379 0.0182994 0.0179828 0.0175895 0.0171211 0.0165794 0.0159669 0.0152859 0.0145393 0.0137303 0.0195197 0.0194384 0.0192715 0.0190217 0.0186906 0.0182794 0.0177899 0.0172241 0.0165846 0.0158742 0.0150957 0.0142527 0.0202621 0.0201755 0.0200009 0.0197407 0.0193955 0.0189668 0.0184566 0.0178674 0.0172014 0.0164619 0.0156521 0.0147756 0.0128622 0.0119386 0.0109635 0.0099411 0.00887567 0.00777167 0.00663421 0.00546765 0.00427752 0.00306862 0.00184655 0.000616401 0.0133487 0.0123875 0.0113734 0.0103106 0.00920389 0.00805782 0.00687713 0.00566727 0.00443318 0.00318014 0.00191348 0.00063874 0.0138361 0.0128377 0.0117847 0.0106819 0.00953394 0.00834556 0.00712205 0.00586837 0.00459012 0.00329269 0.00198103 0.000661267 -0.000616401 -0.00184655 -0.00306862 -0.00427752 -0.00546765 -0.00663421 -0.00777167 -0.00887567 -0.0099411 -0.0109635 -0.0119386 -0.0128622 -0.00063874 -0.00191348 -0.00318014 -0.00443318 -0.00566727 -0.00687713 -0.00805782 -0.00920389 -0.0103106 -0.0113734 -0.0123875 -0.0133487 -0.000661267 -0.00198103 -0.00329269 -0.00459012 -0.00586837 -0.00712205 -0.00834556 -0.00953394 -0.0106819 -0.0117847 -0.0128377 -0.0138361 -0.0137303 -0.0145393 -0.0152859 -0.0159669 -0.0165794 -0.0171211 -0.0175895 -0.0179828 -0.0182994 -0.0185379 -0.0186972 -0.0187804 -0.0142527 -0.0150957 -0.0158742 -0.0165846 -0.0172241 -0.0177899 -0.0182794 -0.0186906 -0.0190217 -0.0192715 -0.0194384 -0.0195197 -0.0147756 -0.0156521 -0.0164619 -0.0172014 -0.0178674 -0.0184566 -0.0189668 -0.0193955 -0.0197407 -0.0200009 -0.0201755 -0.0202621 
</DataArray>
<DataArray Name="Stress_22" format="ascii" type="Float64">
-1883.7 -1875.86 -1859.72 -1835.84 -1804.07 -1764.63 -1717.65 -1663.32 -1601.88 -1533.58 -1458.69 -1377.54 -1952.5 -1943.84 -1927.3 -1902.35 -1869.25 -1828.14 -1779.2 -1722.66 -1658.72 -1587.69 -1509.86 -1425.57 -2020.86 -2011.81 -1994.72 -1968.71 -1934.32 -1891.59 -1840.74 -1782.01 -1715.63 -1641.92 -1561.18 -1473.79 -1290.45 -1197.81 -1099.99 -997.41 -890.524 -779.767 -665.637 -548.604 -429.185 -307.896 -185.274 -61.8478 -1335.17 -1239.06 -1137.64 -1031.36 -920.664 -806.035 -687.949 -566.918 -443.473 -318.131 -191.421 -63.8966 -1380.11 -1280.56 -1175.56 -1065.57 -951.081 -832.55 -710.498 -585.449 -457.933 -328.488 -197.641 -65.9708 61.8478 185.274 307.896 429.185 548.604 665.637 779.767 890.524 997.41 1099.99 1197.81 1290.45 63.8966 191.421 318.131 443.473 566.918 687.949 806.035 920.664 1031.36 1137.64 1239.06 1335.17 65.9708 197.641 328.488 457.933 585.449 710.498 832.55 951.081 1065.57 1175.56 1280.56 1380.11 1377.54 1458.69 1533.58 1601.88 1663.32 1717.65 1764.63 1804.07 1835.84 1859.72 1875.86 1883.7 1425.57 1509.86 1587.69 1658.72 1722.66 1779.2 1828.14 1869.25 1902.35 1927.3 1943.84 1952.5 1473.79 1561.18 1641.92 1715.63 1782.01 1840.74 1891.59 1934.32 1968.71 1994.72 2011.81 2020.86 0.0188216 0.0187557 0.0185916 0.01835 0.0180292 0.0176309 0.017157 0.0166094 0.0159907 0.0153035 0.014551 0.0137364 0.0195219 0.0194361 0.0192683 0.0190195 0.0186891 0.0182786 0.0177899 0.0172252 0.0165865 0.0158769 0.0150994 0.0142571 0.0202196 0.0201173 0.0199471 0.0196905 0.0193501 0.018927 0.0184232 0.0178407 0.0171818 0.0164493 0.0156462 0.0147759 0.0128631 0.0119352 0.0109565 0.00993136 0.0088642 0.00775942 0.00662197 0.00545643 0.00426789 0.00306133 0.00184196 0.000614847 0.0133537 0.012393 0.0113792 0.0103165 0.00920964 0.00806328 0.00688222 0.00567159 0.00443673 0.0031828 0.00191513 0.000639278 0.013842 0.0128483 0.0117991 0.0106989 0.00955246 0.00836448 0.00714015 0.00588482 0.00460392 0.003303 0.00198751 0.000663446 -0.000614847 -0.00184196 -0.00306133 -0.00426789 -0.00545643 -0.00662197 -0.00775942 -0.0088642 -0.00993136 -0.0109565 -0.0119352 -0.0128631 -0.000639278 -0.00191513 -0.0031828 -0.00443673 -0.00567159 -0.00688222 -0.00806328 -0.00920964 -0.0103165 -0.0113792 -0.012393 -0.0133537 -0.000663446 -0.00198751 -0.003303 -0.00460392 -0.00588482 -0.00714015 -0.00836448 -0.00955246 -0.0106989 -0.0117991 -0.0128483 -0.013842 -0.0137364 -0.014551 -0.0153035 -0.0159907 -0.0166094 -0.017157 -0.0176309 -0.0180292 -0.01835 -0.0185916 -0.0187557 -0.0188216 -0.0142571 -0.0150994 -0.0158769 -0.0165865 -0.0172252 -0.0177899 -0.0182786 -0.0186891 -0.0190195 -0.0192683 -0.0194361 -0.0195219 -0.0147759 -0.0156462 -0.0164493 -0.0171818 -0.0178407 -0.0184232 -0.018927 -0.0193501 -0.0196905 -0.0199471 -0.0201173 -0.0202196 
</DataArray>
<DataArray Name="Stress_12" format="ascii" type="Float64">