<?xml version="1.0"?>
<VTKFile byte_order="LittleEndian" type="UnstructuredGrid" version="0.1">
<UnstructuredGrid>
<Piece NumberOfCells="288" NumberOfPoints="384">
<PointData>
<DataArray Name="Warping_X" format="ascii" type="Float64">
-0 -0 0 0 0 0 0 0 0 0 0 0 0 0 -0 0 0 0 0 0 0 0 0 0 0 0 0 0 0 0 0 0 0 0 0 0 0 0 0 0 0 0 0 0 0 0 0 0 0 0 0 0 0 0 0 0 0 0 0 0 0 0 0 0 0 0 0 0 0 0 0 0 0 0 0 0 0 0 0 0 0 0 0 0 0 0 0 0 0 0 0 0 0 0 0 0 0 0 0 0 0 0 0 0 0 0 0 0 0 0 0 0 0 0 0 0 0 0 0 0 0 0 0 0 0 0 0 0 0 0 0 0 0 0 0 0 0 0 0 0 0 0 0 0 0 0 0 0 0 0 0 0 0 0 0 0 0 0 0 0 0 0 0 0 0 0 0 0 0 0 0 0 0 0 0 0 0 0 0 0 0 0 0 0 0 0 0 0 0 0 0 0 0 0 0 0 0 0 0 0 0 0 0 0 0 0 0 0 -0 0 0 0 0 0 0 0 0 0 0 0 0 0 0 0 0 0 0 0 0 0 0 0 0 0 0 0 0 0 0 0 0 0 0 0 0 0 0 0 0 0 0 0 0 0 0 0 0 0 0 0 0 0 0 0 0 0 0 0 0 0 0 0 0 0 0 0 0 0 0 0 0 0 0 0 0 0 0 0 0 0 0 0 0 0 0 0 0 0 0 0 0 0 0 0 0 0 0 0 0 0 0 0 0 0 0 0 -0 0 0 0 0 0 0 0 0 0 0 0 0 0 0 0 0 0 0 0 0 0 0 0 0 0 0 0 0 0 0 0 0 0 0 0 0 0 0 0 0 0 0 0 0 0 0 0 0 0 0 0 0 0 0 0 0 0 0 0 0 0 0 0 0 0 0 0 
</DataArray>
<DataArray Name="Warping_Y" format="ascii" type="Float64">
0 -0 0 0 0 0 0 0 0 0 0 0 0 0 -0 0 0 0 0 0 0 0 0 0 0 0 0 0 0 0 0 0 0 0 0 0 0 0 0 0 0 0 0 0 0 0 0 0 0 0 0 0 -0 0 0 0 0 0 0 0 0 0 0 0 0 0 0 0 0 0 0 0 0 0 0 0 0 0 0 0 0 0 0 0 0 0 0 0 0 0 0 0 0 0 0 0 0 0 0 0 -0 0 0 0 0 0 0 0 0 0 0 0 0 0 0 0 0 0 0 0 0 0 0 0 0 0 0 0 0 0 0 0 0 0 0 0 0 0 0 0 0 0 0 0 0 0 0 0 0 0 0 0 0 0 0 0 0 0 0 0 0 0 0 0 0 0 0 0 0 0 0 0 0 0 0 0 0 0 0 0 0 0 0 0 0 0 0 0 0 0 0 0 0 0 0 0 0 0 0 0 0 0 0 0 0 0 0 0 0 0 0 0 0 0 0 0 0 0 0 0 -0 0 0 0 0 0 0 0 0 0 0 0 0 0 0 0 0 0 0 0 0 0 0 0 0 0 0 0 0 0 0 0 0 0 0 0 -0 0 0 0 0 0 0 0 0 0 0 0 0 0 0 0 0 0 0 0 0 0 0 0 0 0 0 0 0 0 0 0 0 0 0 0 0 0 0 0 0 0 0 0 0 0 0 0 -0 0 0 0 0 0 0 0 0 0 0 0 0 0 0 0 0 0 0 0 0 0 0 0 0 0 0 0 0 0 0 0 0 0 0 0 0 0 0 0 0 0 0 0 0 0 0 0 0 0 0 0 0 0 0 0 0 0 0 0 0 0 0 0 0 0 0 0 0 0 0 0 0 0 0 0 0 0 0 0 
</DataArray>
<DataArray Name="Warping_Z" format="ascii" type="Float64">
0 0 0 0 0 0 0 0 0 0 0 0 0 0 0 0 0 0 0 0 0 0 0 0 0 0 0 0 0 0 0 0 0 0 0 0 0 0 0 0 0 0 0 0 0 0 0 0 0 0 0 0 0 0 0 0 0 0 0 0 0 0 0 0 0 0 0 0 0 0 0 0 0 0 0 0 0 0 0 0 0 0 0 0 0 0 0 0 0 0 0 0 0 0 0 0 0 0 0 0 0 0 0 0 0 0 0 0 0 0 0 0 0 0 0 0 0 0 0 0 0 0 0 0 0 0 0 0 0 0 0 0 0 0 0 0 0 0 0 0 0 0 0 0 0 0 0 0 0 0 0 0 0 0 0 0 0 0 0 0 0 0 0 0 0 0 0 0 0 0 0 0 0 0 0 0 0 0 0 0 0 0 0 0 0 0 0 0 0 0 0 0 0 0 0 0 0 0 0 0 0 0 0 0 0 0 0 0 0 0 0 0 0 0 0 0 0 0 0 0 0 0 0 0 0 0 0 0 0 0 0 0 0 0 0 0 0 0 0 0 0 0 0 0 0 0 0 0 0 0 0 0 0 0 0 0 0 0 0 0 0 0 0 0 0 0 0 0 0 0 0 0 0 0 0 0 0 0 0 0 0 0 0 0 0 0 0 0 0 0 0 0 0 0 0 0 0 0 0 0 0 0 0 0 0 0 0 0 0 0 0 0 0 0 0 0 0 0 0 0 0 0 0 0 0 0 0 0 0 0 0 0 0 0 0 0 0 0 0 0 0 0 0 0 0 0 0 0 0 0 0 0 0 0 0 0 0 0 0 0 0 0 0 0 0 0 0 0 0 0 0 0 0 0 0 0 0 0 0 0 0 0 0 0 
</DataArray>
</PointData>
<CellData>
<DataArray Name="MaterialId" format="ascii" type="Float64">
1 1 1 1 1 1 1 1 1 1 1 1 1 1 1 1 1 1 1 1 1 1 1 1 1 1 1 1 1 1 1 1 1 1 1 1 1 1 1 1 1 1 1 1 1 1 1 1 1 1 1 1 1 1 1 1 1 1 1 1 1 1 1 1 1 1 1 1 1 1 1 1 1 1 1 1 1 1 1 1 1 1 1 1 1 1 1 1 1 1 1 1 1 1 1 1 1 1 1 1 1 1 1 1 1 1 1 1 1 1 1 1 1 1 1 1 1 1 1 1 1 1 1 1 1 1 1 1 1 1 1 1 1 1 1 1 1 1 1 1 1 1 1 1 2 2 2 2 2 2 2 2 2 2 2 2 2 2 2 2 2 2 2 2 2 2 2 2 2 2 2 2 2 2 2 2 2 2 2 2 2 2 2 2 2 2 2 2 2 2 2 2 2 2 2 2 2 2 2 2 2 2 2 2 2 2 2 2 2 2 2 2 2 2 2 2 2 2 2 2 2 2 2 2 2 2 2 2 2 2 2 2 2 2 2 2 2 2 2 2 2 2 2 2 2 2 2 2 2 2 2 2 2 2 2 2 2 2 2 2 2 2 2 2 2 2 2 2 2 2 2 2 2 2 2 2 2 2 2 2 2 2 2 2 2 2 2 2 
</DataArray>
<DataArray Name="FiberAngle" format="ascii" type="Float64">
0 0 0 0 0 0 0 0 0 0 0 0 0 0 0 0 0 0 0 0 0 0 0 0 0 0 0 0 0 0 0 0 0 0 0 0 0 0 0 0 0 0 0 0 0 0 0 0 0 0 0 0 0 0 0 0 0 0 0 0 0 0 0 0 0 0 0 0 0 0 0 0 0 0 0 0 0 0 0 0 0 0 0 0 0 0 0 0 0 0 0 0 0 0 0 0 0 0 0 0 0 0 0 0 0 0 0 0 0 0 0 0 0 0 0 0 0 0 0 0 0 0 0 0 0 0 0 0 0 0 0 0 0 0 0 0 0 0 0 0 0 0 0 0 0 0 0 0 0 0 0 0 0 0 0 0 0 0 0 0 0 0 0 0 0 0 0 0 0 0 0 0 0 0 0 0 0 0 0 0 0 0 0 0 0 0 0 0 0 0 0 0 0 0 0 0 0 0 0 0 0 0 0 0 0 0 0 0 0 0 0 0 0 0 0 0 0 0 0 0 0 0 0 0 0 0 0 0 0 0 0 0 0 0 0 0 0 0 0 0 0 0 0 0 0 0 0 0 0 0 0 0 0 0 0 0 0 0 0 0 0 0 0 0 0 0 0 0 0 0 0 0 0 0 0 0 0 0 0 0 0 0 0 0 0 0 0 0 
</DataArray>
<DataArray Name="Strain_11" format="ascii" type="Float64">
0 0 0 0 0 0 0 0 0 0 0 0 0 0 0 0 0 0 0 0 0 0 0 0 0 0 0 0 0 0 0 0 0 0 0 0 0 0 0 0 0 0 0 0 0 0 0 0 0 0 0 0 0 0 0 0 0 0 0 0 0 0 0 0 0 0 0 0 0 0 0 0 0 0 0 0 0 0 0 0 0 0 0 0 0 0 0 0 0 0 0 0 0 0 0 0 0 0 0 0 0 0 0 0 0 0 0 0 0 0 0 0 0 0 0 0 0 0 0 0 0 0 0 0 0 0 0 0 0 0 0 0 0 0 0 0 0 0 0 0 0 0 0 0 0 0 0 0 0 0 0 0 0 0 0 0 0 0 0 0 0 0 0 0 0 0 0 0 0 0 0 0 0 0 0 0 0 0 0 0 0 0 0 0 0 0 0 0 0 0 0 0 0 0 0 0 0 0 0 0 0 0 0 0 0 0 0 0 0 0 0 0 0 0 0 0 0 0 0 0 0 0 0 0 0 0 0 0 0 0 0 0 0 0 0 0 0 0 0 0 0 0 0 0 0 0 0 0 0 0 0 0 0 0 0 0 0 0 0 0 0 0 0 0 0 0 0 0 0 0 0 0 0 0 0 0 0 0 0 0 0 0 0 0 0 0 0 0 
</DataArray>
<DataArray Name="Strain_22" format="ascii" type="Float64">
0 0 0 0 0 0 0 0 0 0 0 0 0 0 0 0 0 0 0 0 0 0 0 0 0 0 0 0 0 0 0 0 0 0 0 0 0 0 0 0 0 0 0 0 0 0 0 0 0 0 0 0 0 0 0 0 0 0 0 0 0 0 0 0 0 0 0 0 0 0 0 0 0 0 0 0 0 0 0 0 0 0 0 0 0 0 0 0 0 0 0 0 0 0 0 0 0 0 0 0 0 0 0 0 0 0 0 0 0 0 0 0 0 0 0 0 0 0 0 0 0 0 0 0 0 0 0 0 0 0 0 0 0 0 0 0 0 0 0 0 0 0 0 0 0 0 0 0 0 0 0 0 0 0 0 0 0 0 0 0 0 0 0 0 0 0 0 0 0 0 0 0 0 0 0 0 0 0 0 0 0 0 0 0 0 0 0 0 0 0 0 0 0 0 0 0 0 0 0 0 0 0 0 0 0 0 0 0 0 0 0 0 0 0 0 0 0 0 0 0 0 0 0 0 0 0 0 0 0 0 0 0 0 0 0 0 0 0 0 0 0 0 0 0 0 0 0 0 0 0 0 0 0 0 0 0 0 0 0 0 0 0 0 0 0 0 0 0 0 0 0 0 0 0 0 0 0 0 0 0 0 0 0 0 0 0 0 0 
</DataArray>
<DataArray Name="Strain_12" format="ascii" type="Float64">
0 0 0 0 0 0 0 0 0 0 0 0 0 0 0 0 0 0 0 0 0 0 0 0 0 0 0 0 0 0 0 0 0 0 0 0 0 0 0 0 0 0 0 0 0 0 0 0 0 0 0 0 0 0 0 0 0 0 0 0 0 0 0 0 0 0 0 0 0 0 0 0 0 0 0 0 0 0 0 0 0 0 0 0 0 0 0 0 0 0 0 0 0 0 0 0 0 0 0 0 0 0 0 0 0 0 0 0 0 0 0 0 0 0 0 0 0 0 0 0 0 0 0 0 0 0 0 0 0 0 0 0 0 0 0 0 0 0 0 0 0 0 0 0 0 0 0 0 0 0 0 0 0 0 0 0 0 0 0 0 0 0 0 0 0 0 0 0 0 0 0 0 0 0 0 0 0 0 0 0 0 0 0 0 0 0 0 0 0 0 0 0 0 0 0 0 0 0 0 0 0 0 0 0 0 0 0 0 0 0 0 0 0 0 0 0 0 0 0 0 0 0 0 0 0 0 0 0 0 0 0 0 0 0 0 0 0 0 0 0 0 0 0 0 0 0 0 0 0 0 0 0 0 0 0 0 0 0 0 0 0 0 0 0 0 0 0 0 0 0 0 0 0 0 0 0 0 0 0 0 0 0 0 0 0 0 0 0 
</DataArray>
<DataArray Name="Strain_13" format="ascii" type="Float64">
2802.59 2865.39 2846.82 2811.35 2763.48 2703.69 2632.26 2549.46 2455.66 2351.29 2236.71 2112.46 2780.92 2769.67 2747.24 2712.75 2666.54 2608.85 2539.91 2460.04 2369.54 2268.81 2158.26 2038.37 2761.59 2680.72 2654.43 2620.85 2576.18 2520.46 2453.86 2376.69 2289.29 2191.96 2085.14 1969.33 1979.05 1837.07 1687.09 1529.83 1365.94 1196.04 1021 841.474 658.322 472.265 284.183 94.8679 1909.65 1772.64 1627.95 1476.18 1318.01 1154.12 985.168 811.964 635.235 455.722 274.218 91.5393 1844.98 1712.62 1572.8 1426.19 1273.4 1115.03 951.825 784.464 613.727 440.327 264.935 88.4372 -94.8679 -284.183 -472.265 -658.322 -841.474 -1021 -1196.04 -1365.94 -1529.83 -1687.09 -1837.07 -1979.05 -91.5393 -274.218 -455.722 -635.235 -811.964 -985.168 -1154.12 -1318.01 -1476.18 -1627.95 -1772.64 -1909.65 -88.4372 -264.935 -440.327 -613.727 -784.464 -951.825 -1115.03 -1273.4 -1426.19 -1572.8 -1712.62 -1844.98 -2112.46 -2236.71 -2351.29 -2455.66 -2549.46 -2632.26 -2703.69 -2763.48 -2811.35 -2846.82 -2865.39 -2802.59 -2038.37 -2158.26 -2268.81 -2369.54 -2460.04 -2539.91 -2608.85 -2666.54 -2712.75 -2747.24 -2769.67 -2780.92 -1969.33 -2085.14 -2191.96 -2289.29 -2376.69 -2453.86 -2520.46 -2576.18 -2620.85 -2654.43 -2680.72 -2761.59 2802.54 2865.26 2846.95 2811.2 2763.43 2703.84 2632.42 2549.42 2455.32 2351.46 2236.99 2112.54 2780.83 2769.68 2747.26 2712.58 2666.46 2608.96 2540.08 2460 2369.35 2268.91 2158.5 2038.44 2761.41 2680.87 2654.52 2620.49 2576.05 2520.55 2454.12 2376.68 2288.98 2192.1 2085.48 1969.36 1979.08 1837.1 1686.89 1529.66 1366.15 1196.16 1021.02 841.394 658.291 472.163 284.057 94.9034 1909.59 1772.61 1627.93 1476.12 1318.02 1154.21 985.263 811.997 635.142 455.571 274.168 91.5628 1844.76 1712.57 1573.02 1426.16 1273.23 1115.09 952.015 784.637 613.556 440.052 264.97 88.5392 -94.9034 -284.057 -472.163 -658.291 -841.394 -1021.02 -1196.16 -1366.15 -1529.66 -1686.89 -1837.1 -1979.08 -91.5628 -274.168 -455.571 -635.142 -811.997 -985.263 -1154.21 -1318.02 -1476.12 -1627.93 -1772.61 -1909.59 -88.5392 -264.97 -440.052 -613.556 -784.637 -952.015 -1115.09 -1273.23 -1426.16 -1573.02 -1712.57 -1844.76 -2112.54 -2236.99 -2351.46 -2455.32 -2549.42 -2632.42 -2703.84 -2763.43 -2811.2 -2846.95 -2865.26 -2802.54 -2038.44 -2158.5 -2268.91 -2369.35 -2460 -2540.08 -2608.96 -2666.46 -2712.58 -2747.26 -2769.68 -2780.83 -1969.36 -2085.48 -2192.1 -2288.98 -2376.68 -2454.12 -2520.55 -2576.05 -2620.49 -2654.52 -2680.87 -2761.41 
</DataArray>
<DataArray Name="Strain_23" format="ascii" type="Float64">
-3398.38 -3265.96 -3081.18 -2896.01 -2713.24 -2533.92 -2358.87 -2188.78 -2024.49 -1866.64 -1715.9 -1572.99 -3354.95 -3270.99 -3097.63 -2918.91 -2742.63 -2569.61 -2400.66 -2236.58 -2078.03 -1925.69 -1780.26 -1642.35 -3406.29 -3285.28 -3112.83 -2940.46 -2770.06 -2602.9 -2439.7 -2281.14 -2127.97 -1980.81 -1840.27 -1707.03 -1438.5 -1313.04 -1197.15 -1091.36 -996.09 -911.778 -838.822 -777.514 -728.149 -690.926 -666.036 -653.549 -1512.59 -1391.53 -1279.7 -1177.6 -1085.67 -1004.33 -933.92 -874.76 -827.121 -791.222 -767.204 -755.151 -1581.67 -1464.72 -1356.66 -1258 -1169.21 -1090.61 -1022.57 -965.424 -919.392 -884.712 -861.499 -849.857 -653.549 -666.036 -690.926 -728.149 -777.514 -838.822 -911.778 -996.09 -1091.36 -1197.15 -1313.04 -1438.5 -755.151 -767.204 -791.222 -827.121 -874.76 -933.92 -1004.33 -1085.67 -1177.6 -1279.7 -1391.53 -1512.59 -849.857 -861.499 -884.712 -919.392 -965.424 -1022.57 -1090.61 -1169.21 -1258 -1356.66 -1464.72 -1581.67 -1572.99 -1715.9 -1866.64 -2024.49 -2188.78 -2358.87 -2533.92 -2713.24 -2896.01 -3081.18 -3265.96 -3398.38 -1642.35 -1780.26 -1925.69 -2078.03 -2236.58 -2400.66 -2569.61 -2742.63 -2918.91 -3097.63 -3270.99 -3354.95 -1707.03 -1840.27 -1980.81 -2127.97 -2281.14 -2439.7 -2602.9 -2770.06 -2940.46 -3112.83 -3285.28 -3406.29 -3398.34 -3266.08 -3081.28 -2896.04 -2713.31 -2533.89 -2358.75 -2188.56 -2024.66 -1866.84 -1715.88 -1572.96 -3354.93 -3271.04 -3097.78 -2919 -2742.6 -2569.52 -2400.57 -2236.57 -2078.09 -1925.71 -1780.29 -1642.41 -3406.19 -3285.25 -3113.11 -2940.63 -2769.89 -2602.71 -2439.63 -2281.31 -2128.01 -1980.59 -1840.33 -1707.26 -1438.42 -1312.77 -1196.98 -1091.71 -996.136 -911.623 -838.677 -777.577 -728.318 -690.817 -666.184 -653.62 -1512.52 -1391.28 -1279.6 -1177.79 -1085.71 -1004.17 -933.813 -874.849 -827.286 -791.201 -767.19 -755.247 -1581.64 -1464.37 -1356.51 -1258.3 -1169.21 -1090.34 -1022.47 -965.542 -919.741 -884.608 -861.33 -850.014 -653.62 -666.184 -690.817 -728.318 -777.577 -838.677 -911.623 -996.136 -1091.71 -1196.98 -1312.77 -1438.42 -755.247 -767.19 -791.201 -827.286 -874.849 -933.813 -1004.17 -1085.71 -1177.79 -1279.6 -1391.28 -1512.52 -850.014 -861.33 -884.608 -919.741 -965.542 -1022.47 -1090.34 -1169.21 -1258.3 -1356.51 -1464.37 -1581.64 -1572.96 -1715.88 -1866.84 -2024.66 -2188.56 -2358.75 -2533.89 -2713.31 -2896.04 -3081.28 -3266.08 -3398.34 -1642.41 -1780.29 -1925.71 -2078.09 -2236.57 -2400.57 -2569.52 -2742.6 -2919 -3097.78 -3271.04 -3354.93 -1707.26 -1840.33 -1980.59 -2128.01 -2281.31 -2439.63 -2602.71 -2769.89 -2940.63 -3113.11 -3285.25 -3406.19 
</DataArray>
<DataArray Name="Strain_33" format="ascii" type="Float64">
0 0 0 0 0 0 0 0 0 0 0 0 0 0 0 0 0 0 0 0 0 0 0 0 0 0 0 0 0 0 0 0 0 0 0 0 0 0 0 0 0 0 0 0 0 0 0 0 0 0 0 0 0 0 0 0 0 0 0 0 0 0 0 0 0 0 0 0 0 0 0 0 0 0 0 0 0 0 0 0 0 0 0 0 0 0 0 0 0 0 0 0 0 0 0 0 0 0 0 0 0 0 0 0 0 0 0 0 0 0 0 0 0 0 0 0 0 0 0 0 0 0 0 0 0 0 0 0 0 0 0 0 0 0 0 0 0 0 0 0 0 0 0 0 0 0 0 0 0 0 0 0 0 0 0 0 0 0 0 0 0 0 0 0 0 0 0 0 0 0 0 0 0 0 0 0 0 0 0 0 0 0 0 0 0 0 0 0 0 0 0 0 0 0 0 0 0 0 0 0 0 0 0 0 0 0 0 0 0 0 0 0 0 0 0 0 0 0 0 0 0 0 0 0 0 0 0 0 0 0 0 0 0 0 0 0 0 0 0 0 0 0 0 0 0 0 0 0 0 0 0 0 0 0 0 0 0 0 0 0 0 0 0 0 0 0 0 0 0 0 0 0 0 0 0 0 0 0 0 0 0 0 0 0 0 0 0 0 
</DataArray>
<DataArray Name="Stress_11" format="ascii" type="Float64">
0 0 0 0 0 0 0 0 0 0 0 0 0 0 0 0 0 0 0 0 0 0 0 0 0 0 0 0 0 0 0 0 0 0 0 0 0 0 0 0 0 0 0 0 0 0 0 0 0 0 0 0 0 0 0 0 0 0 0 0 0 0 0 0 0 0 0 0 0 0 0 0 0 0 0 0 0 0 0 0 0 0 0 0 0 0 0 0 0 0 0 0 0 0 0 0 0 0 0 0 0 0 0 0 0 0 0 0 0 0 0 0 0 0 0 0 0 0 0 0 0 0 0 0 0 0 0 0 0 0 0 0 0 0 0 0 0 0 0 0 0 0 0 0 0 0 0 0 0 0 0 0 0 0 0 0 0 0 0 0 0 0 0 0 0 0 0 0 0 0 0 0 0 0 0 0 0 0 0 0 0 0 0 0 0 0 0 0 0 0 0 0 0 0 0 0 0 0 0 0 0 0 0 0 0 0 0 0 0 0 0 0 0 0 0 0 0 0 0 0 0 0 0 0 0 0 0 0 0 0 0 0 0 0 0 0 0 0 0 0 0 0 0 0 0 0 0 0 0 0 0 0 0 0 0 0 0 0 0 0 0 0 0 0 0 0 0 0 0 0 0 0 0 0 0 0 0 0 0 0 0 0 0 0 0 0 0 0 
</DataArray>
<DataArray Name="Stress_22" format="ascii" type="Float64">
0 0 0 0 0 0 0 0 0 0 0 0 0 0 0 0 0 0 0 0 0 0 0 0 0 0 0 0 0 0 0 0 0 0 0 0 0 0 0 0 0 0 0 0 0 0 0 0 0 0 0 0 0 0 0 0 0 0 0 0 0 0 0 0 0 0 0 0 0 0 0 0 0 0 0 0 0 0 0 0 0 0 0 0 0 0 0 0 0 0 0 0 0 0 0 0 0 0 0 0 0 0 0 0 0 0 0 0 0 0 0 0 0 0 0 0 0 0 0 0 0 0 0 0 0 0 0 0 0 0 0 0 0 0 0 0 0 0 0 0 0 0 0 0 0 0 0 0 0 0 0 0 0 0 0 0 0 0 0 0 0 0 0 0 0 0 0 0 0 0 0 0 0 0 0 0 0 0 0 0 0 0 0 0 0 0 0 0 0 0 0 0 0 0 0 0 0 0 0 0 0 0 0 0 0 0 0 0 0 0 0 0 0 0 0 0 0 0 0 0 0 0 0 0 0 0 0 0 0 0 0 0 0 0 0 0 0 0 0 0 0 0 0 0 0 0 0 0 0 0 0 0 0 0 0 0 0 0 0 0 0 0 0 0 0 0 0 0 0 0 0 0 0 0 0 0 0 0 0 0 0 0 0 0 0 0 0 0 
</DataArray>
<DataArray Name="Stress_12" format="ascii" type="Float64">
0 0 0 0 0 0 0 0 0 0 0 0 0 0 0 0 0 0 0 0 0 0 0 0 0 0 0 0 0 0 0 0 0 0 0 0 0 0 0 0 0 0 0 0 0 0 0 0 0 0 0 0 0 0 0 0 0 0 0 0 0 0 0 0 0 0 0 0 0 0 0 0 0 0 0 0 0 0 0 0 0 0 0 0 0 0 0 0 0 0 0 0 0 0 0 0 0 0 0 0 0 0 0 0 0 0 0 0 0 0 0 0 0 0 0 0 0 0 0 0 0 0 0 0 0 0 0 0 0 0 0 0 0 0 0 0 0 0 0 0 0 0 0 0 0 0 0 0 0 0 0 0 0 0 0 0 0 0 0 0 0 0 0 0 0 0 0 0 0 0 0 0 0 0 0 0 0 0 0 0 0 0 0 0 0 0 0 0 0 0 0 0 0 0 0 0 0 0 0 0 0 0 0 0 0 0 0 0 0 0 0 0 0 0 0 0 0 0 0 0 0 0 0 0 0 0 0 0 0 0 0 0 0 0 0 0 0 0 0 0 0 0 0 0 0 0 0 0 0 0 0 0 0 0 0 0 0 0 0 0 0 0 0 0 0 0 0 0 0 0 0 0 0 0 0 0 0 0 0 0 0 0 0 0 0 0 0 0 
</DataArray>
<DataArray Name="Stress_13" format="ascii" type="Float64">
116776 119392 118619 117141 115146 112655 109678 106228 102320 97971 93197 88020 115873 115404 114469 113032 111107 108703 105831 102503 98731.6 94534.3 89928.1 84932.7 115067 111698 110602 109203 107342 105020 102245 99029.6 95387.7 91332.3 86881.6 82056.2 82461.1 76545.4 70296.1 63743.4 56914.5 49835.6 42542 35061.7 27430.3 19677.9 11841.1 3952.86 79569.4 73860.6 67831.7 61507.9 54917.6 48088.9 41049 33832.1 26468.3 18988.5 11425.8 3814.17 76875 71359.9 65534 59425.2 53058.6 46459.8 39659.7 32686.2 25572.1 18347.1 11039 3684.91 -3952.86 -11841.1 -19677.9 -27430.3 -35061.7 -42542 -49835.6 -56914.5 -63743.4 -70296.1 -76545.4 -82461.1 -3814.17 -11425.8 -18988.5 -26468.3 -33832.1 -41049 -48088.9 -54917.6 -61507.9 -67831.7 -73860.6 -79569.4 -3684.91 -11039 -18347.1 -25572.1 -32686.2 -39659.7 -46459.8 -53058.6 -59425.2 -65534 -71359.9 -76875 -88020 -93197 -97971 -102320 -106228 -109678 -112655 -115146 -117141 -118619 -119392 -116776 -84932.7 -89928.1 -94534.3 -98731.6 -102503 -105831 -108703 -111107 -113032 -114469 -115404 -115873 -82056.2 -86881.6 -91332.3 -95387.7 -99029.6 -102245 -105020 -107342 -109203 -110602 -111698 -115067 1.16773 1.19387 1.18624 1.17134 1.15144 1.12661 1.09685 1.06227 1.02306 0.979783 0.932085 0.880233 1.15869 1.15404 1.1447 1.13025 1.11103 1.08707 1.05837 1.02501 0.987239 0.945385 0.899383 0.849358 1.1506 1.11704 1.10606 1.09188 1.07336 1.05024 1.02256 0.990291 0.953748 0.913384 0.868958 0.820575 0.824625 0.765462 0.702878 0.637363 0.569234 0.498403 0.425429 0.350583 0.27429 0.196736 0.118358 0.0395434 0.795669 0.738595 0.67831 0.615054 0.54918 0.480924 0.41053 0.338335 0.264645 0.189823 0.114238 0.0381515 0.768657 0.713575 0.655432 0.594238 0.530517 0.464626 0.396676 0.326935 0.25565 0.183356 0.110405 0.0368916 -0.0395434 -0.118358 -0.196736 -0.27429 -0.350583 -0.425429 -0.498403 -0.569234 -0.637363 -0.702878 -0.765462 -0.824625 -0.0381515 -0.114238 -0.189823 -0.264645 -0.338335 -0.41053 -0.480924 -0.54918 -0.615054 -0.67831 -0.738595 -0.795669 -0.0368916 -0.110405 -0.183356 -0.25565 -0.326935 -0.396676 -0.464626 -0.530517 -0.594238 -0.655432 -0.713575 -0.768657 -0.880233 -0.932085 -0.979783 -1.02306 -1.06227 -1.09685 -1.12661 -1.15144 -1.17134 -1.18624 -1.19387 -1.16773 -0.849358 -0.899383 -0.945385 -0.987239 -1.02501 -1.05837 -1.08707 -1.11103 -1.13025 -1.1447 -1.15404 -1.15869 -0.820575 -0.868958 -0.913384 -0.953748 -0.990291 -1.02256 -1.05024 -1.07336 -1.09188 -1.10606 -1.11704 -1.1506 
</DataArray>
<DataArray Name="Stress_23" format="ascii" type="Float64">
-141600 -136083 -128383 -120668 -113052 -105581 -98287.1 -91199.9 -84354.5 -77777.4 -71496.4 -65541.9 -139791 -136292 -129069 -121622 -114277 -107068 -100028 -93191.4 -86585.2 -80237.9 -74178.1 -68431.9 -141930 -136888 -129702 -122520 -115420 -108455 -101655 -95048.2 -88666 -82534.4 -76678.5 -71126.9 -59938.1 -54710.6 -49881.5 -45473.7 -41504.1 -37991.1 -34951.2 -32396.7 -30339.8 -28788.8 -27751.7 -27231.4 -63025 -57980.7 -53321.2 -49067 -45236.6 -41847.6 -38913.6 -36448.6 -34463.7 -32967.9 -31967.1 -31464.9 -65903.3 -61030.4 -56527.8 -52417.1 -48717.3 -45442.3 -42607.6 -40226.3 -38308.3 -36863.3 -35896.1 -35411 -27231.4 -27751.7 -28788.8 -30339.8 -32396.7 -34951.2 -37991.1 -41504.1 -45473.7 -49881.5 -54710.6 -59938.1 -31464.9 -31967.1 -32967.9 -34463.7 -36448.6 -38913.6 -41847.6 -45236.6 -49067 -53321.2 -57980.7 -63025 -35411 -35896.1 -36863.3 -38308.3 -40226.3 -42607.6 -45442.3 -48717.3 -52417.1 -56527.8 -61030.4 -65903.3 -65541.9 -71496.4 -77777.4 -84354.5 -91199.9 -98287.1 -105581 -113052 -120668 -128383 -136083 -141600 -68431.9 -74178.1 -80237.9 -86585.2 -93191.4 -100028 -107068 -114277 -121622 -129069 -136292 -139791 -71126.9 -76678.5 -82534.4 -88666 -95048.2 -101655 -108455 -115420 -122520 -129702 -136888 -141930 -1.41599 -1.36088 -1.28388 -1.20669 -1.13056 -1.0558 -0.982822 -0.911909 -0.843615 -0.777857 -0.714955 -0.655405 -1.3979 -1.36294 -1.29075 -1.21626 -1.14276 -1.07064 -1.00025 -0.931911 -0.865877 -0.802385 -0.741793 -0.684344 -1.41926 -1.36886 -1.29714 -1.22527 -1.15413 -1.08447 -1.01652 -0.950553 -0.886677 -0.825253 -0.76681 -0.711362 -0.599348 -0.546993 -0.498744 -0.454882 -0.41506 -0.379846 -0.349452 -0.323993 -0.303468 -0.287843 -0.277579 -0.272344 -0.63022 -0.579706 -0.533171 -0.490748 -0.452384 -0.418408 -0.389092 -0.364523 -0.344705 -0.32967 -0.319665 -0.314689 -0.65902 -0.610161 -0.565215 -0.524297 -0.487175 -0.454311 -0.426032 -0.402312 -0.383228 -0.36859 -0.35889 -0.354175 -0.272344 -0.277579 -0.287843 -0.303468 -0.323993 -0.349452 -0.379846 -0.41506 -0.454882 -0.498744 -0.546993 -0.599348 -0.314689 -0.319665 -0.32967 -0.344705 -0.364523 -0.389092 -0.418408 -0.452384 -0.490748 -0.533171 -0.579706 -0.63022 -0.354175 -0.35889 -0.36859 -0.383228 -0.402312 -0.426032 -0.454311 -0.487175 -0.524297 -0.565215 -0.610161 -0.65902 -0.655405 -0.714955 -0.777857 -0.843615 -0.911909 -0.982822 -1.0558 -1.13056 -1.20669 -1.28388 -1.36088 -1.41599 -0.684344 -0.741793 -0.802385 -0.865877 -0.931911 -1.00025 -1.07064 -1.14276 -1.21626 -1.29075 -1.36294 -1.3979 -0.711362 -0.76681 -0.825253 -0.886677 -0.950553 -1.01652 -1.08447 -1.15413 -1.22527 -1.29714 -1.36886 -1.41926 
</DataArray>
<DataArray Name="Stress_33" format="ascii" type="Float64">
0 0 0 0 0 0 0 0 0 0 0 0 0 0 0 0 0 0 0 0 0 0 0 0 0 0 0 0 0 0 0 0 0 0 0 0 0 0 0 0 0 0 0 0 0 0 0 0 0 0 0 0 0 0 0 0 0 0 0 0 0 0 0 0 0 0 0 0 0 0 0 0 0 0 0 0 0 0 0 0 0 0 0 0 0 0 0 0 0 0 0 0 0 0 0 0 0 0 0 0 0 0 0 0 0 0 0 0 0 0 0 0 0 0 0 0 0 0 0 0 0 0 0 0 0 0 0 0 0 0 0 0 0 0 0 0 0 0 0 0 0 0 0 0 0 0 0 0 0 0 0 0 0 0 0 0 0 0 0 0 0 0 0 0 0 0 0 0 0 0 0 0 0 0 0 0 0 0 0 0 0 0 0 0 0 0 0 0 0 0 0 0 0 0 0 0 0 0 0 0 0 0 0 0 0 0 0 0 0 0 0 0 0 0 0 0 0 0 0 0 0 0 0 0 0 0 0 0 0 0 0 0 0 0 0 0 0 0 0 0 0 0 0 0 0 0 0 0 0 0 0 0 0 0 0 0 0 0 0 0 0 0 0 0 0 0 0 0 0 0 0 0 0 0 0 0 0 0 0 0 0 0 0 0 0 0 0 0 
</DataArray>
</CellData>
<Points>
<DataArray NumberOfComponents="3" format="ascii" type="Float64">
0 0.09 0 -0.06364 0.06364 0 -0.005886 0.089807 0 -0.011747 0.08923 0 -0.017558 0.088271 0 -0.023294 0.086933 0 -0.02893 0.085224 0 -0.034442 0.083149 0 -0.039806 0.080719 0 -0.045 0.077942 0 -0.050001 0.074832 0 -0.054789 0.071402 0 -0.059341 0.067666 0 -0.065997 0.065997 0 0 0.093333 0 -0.006104 0.093133 0 -0.012182 0.092535 0 -0.018208 0.09154 0 -0.024156 0.090153 0 -0.030001 0.08838 0 -0.035717 0.086229 0 -0.04128 0.083708 0 -0.046667 0.080829 0 -0.051853 0.077604 0 -0.056818 0.074046 0 -0.061539 0.070172 0 -0.068354 0.068354 0 0 0.096667 0 -0.006322 0.09646 0 -0.012618 0.09584 0 -0.018859 0.094809 0 -0.025019 0.093373 0 -0.031072 0.091537 0 -0.036993 0.089308 0 -0.042755 0.086698 0 -0.048333 0.083716 0 -0.053705 0.080375 0 -0.058847 0.076691 0 -0.063737 0.072678 0 -0.070711 0.070711 0 0 0.1 0 -0.00654 0.099786 0 -0.013053 0.099144 0 -0.019509 0.098079 0 -0.025882 0.096593 0 -0.032144 0.094693 0 -0.038268 0.092388 0 -0.044229 0.089687 0 -0.05 0.086603 0 -0.055557 0.083147 0 -0.060876 0.079335 0 -0.065935 0.075184 0 -0.09 0 0 -0.067666 0.059341 0 -0.071402 0.054789 0 -0.074832 0.050001 0 -0.077942 0.045 0 -0.080719 0.039806 0 -0.083149 0.034442 0 -0.085224 0.02893 0 -0.086933 0.023294 0 -0.088271 0.017558 0 -0.08923 0.011747 0 -0.089807 0.005886 0 -0.093333 0 0 -0.070172 0.061539 0 -0.074046 0.056818 0 -0.077604 0.051853 0 -0.080829 0.046667 0 -0.083708 0.04128 0 -0.086229 0.035717 0 -0.08838 0.030001 0 -0.090153 0.024156 0 -0.09154 0.018208 0 -0.092535 0.012182 0 -0.093133 0.006104 0 -0.096667 0 0 -0.072678 0.063737 0 -0.076691 0.058847 0 -0.080375 0.053705 0 -0.083716 0.048333 0 -0.086698 0.042755 0 -0.089308 0.036993 0 -0.091537 0.031072 0 -0.093373 0.025019 0 -0.094809 0.018859 0 -0.09584 0.012618 0 -0.09646 0.006322 0 -0.1 0 0 -0.075184 0.065935 0 -0.079335 0.060876 0 -0.083147 0.055557 0 -0.086603 0.05 0 -0.089687 0.044229 0 -0.092388 0.038268 0 -0.094693 0.032144 0 -0.096593 0.025882 0 -0.098079 0.019509 0 -0.099144 0.013053 0 -0.099786 0.00654 0 -0.06364 -0.06364 0 -0.089807 -0.005886 0 -0.08923 -0.011747 0 -0.088271 -0.017558 0 -0.086933 -0.023294 0 -0.085224 -0.02893 0 -0.083149 -0.034442 0 -0.080719 -0.039806 0 -0.077942 -0.045 0 -0.074832 -0.050001 0 -0.071402 -0.054789 0 -0.067666 -0.059341 0 -0.065997 -0.065997 0 -0.093133 -0.006104 0 -0.092535 -0.012182 0 -0.09154 -0.018208 0 -0.090153 -0.024156 0 -0.08838 -0.030001 0 -0.086229 -0.035717 0 -0.083708 -0.04128 0 -0.080829 -0.046667 0 -0.077604 -0.051853 0 -0.074046 -0.056818 0 -0.070172 -0.061539 0 -0.068354 -0.068354 0 -0.09646 -0.006322 0 -0.09584 -0.012618 0 -0.094809 -0.018859 0 -0.093373 -0.025019 0 -0.091537 -0.031072 0 -0.089308 -0.036993 0 -0.086698 -0.042755 0 -0.083716 -0.048333 0 -0.080375 -0.053705 0 -0.076691 -0.058847 0 -0.072678 -0.063737 0 -0.070711 -0.070711 0 -0.099786 -0.00654 0 -0.099144 -0.013053 0 -0.098079 -0.019509 0 -0.096593 -0.025882 0 -0.094693 -0.032144 0 -0.092388 -0.038268 0 -0.089687 -0.044229 0 -0.086603 -0.05 0 -0.083147 -0.055557 0 -0.079335 -0.060876 0 -0.075184 -0.065935 0 0 -0.09 0 -0.059341 -0.067666 0 -0.054789 -0.071402 0 -0.050001 -0.074832 0 -0.045 -0.077942 0 -0.039806 -0.080719 0 -0.034442 -0.083149 0 -0.02893 -0.085224 0 -0.023294 -0.086933 0 -0.017558 -0.088271 0 -0.011747 -0.08923 0 -0.005886 -0.089807 0 0 -0.093333 0 -0.061539 -0.070172 0 -0.056818 -0.074046 0 -0.051853 -0.077604 0 -0.046667 -0.080829 0 -0.04128 -0.083708 0 -0.035717 -0.086229 0 -0.030001 -0.08838 0 -0.024156 -0.090153 0 -0.018208 -0.09154 0 -0.012182 -0.092535 0 -0.006104 -0.093133 0 0 -0.096667 0 -0.063737 -0.072678 0 -0.058847 -0.076691 0 -0.053705 -0.080375 0 -0.048333 -0.083716 0 -0.042755 -0.086698 0 -0.036993 -0.089308 0 -0.031072 -0.091537 0 -0.025019 -0.093373 0 -0.018859 -0.094809 0 -0.012618 -0.09584 0 -0.006322 -0.09646 0 0 -0.1 0 -0.065935 -0.075184 0 -0.060876 -0.079335 0 -0.055557 -0.083147 0 -0.05 -0.086603 0 -0.044229 -0.089687 0 -0.038268 -0.092388 0 -0.032144 -0.094693 0 -0.025882 -0.096593 0 -0.019509 -0.098079 0 -0.013053 -0.099144 0 -0.00654 -0.099786 0 0.06364 -0.06364 0 0.005886 -0.089807 0 0.011747 -0.08923 0 0.017558 -0.088271 0 0.023294 -0.086933 0 0.02893 -0.085224 0 0.034442 -0.083149 0 0.039806 -0.080719 0 0.045 -0.077942 0 0.050001 -0.074832 0 0.054789 -0.071402 0 0.059341 -0.067666 0 0.065997 -0.065997 0 0.006104 -0.093133 0 0.012182 -0.092535 0 0.018208 -0.09154 0 0.024156 -0.090153 0 0.030001 -0.08838 0 0.035717 -0.086229 0 0.04128 -0.083708 0 0.046667 -0.080829 0 0.051853 -0.077604 0 0.056818 -0.074046 0 0.061539 -0.070172 0 0.068354 -0.068354 0 0.006322 -0.09646 0 0.012618 -0.09584 0 0.018859 -0.094809 0 0.025019 -0.093373 0 0.031072 -0.091537 0 0.036993 -0.089308 0 0.042755 -0.086698 0 0.048333 -0.083716 0 0.053705 -0.080375 0 0.058847 -0.076691 0 0.063737 -0.072678 0 0.070711 -0.070711 0 0.00654 -0.099786 0 0.013053 -0.099144 0 0.019509 -0.098079 0 0.025882 -0.096593 0 0.032144 -0.094693 0 0.038268 -0.092388 0 0.044229 -0.089687 0 0.05 -0.086603 0 0.055557 -0.083147 0 0.060876 -0.079335 0 0.065935 -0.075184 0 0.09 0 0 0.067666 -0.059341 0 0.071402 -0.054789 0 0.074832 -0.050001 0 0.077942 -0.045 0 0.080719 -0.039806 0 0.083149 -0.034442 0 0.085224 -0.02893 0 0.086933 -0.023294 0 0.088271 -0.017558 0 0.08923 -0.011747 0 0.089807 -0.005886 0 0.093333 0 0 0.070172 -0.061539 0 0.074046 -0.056818 0 0.077604 -0.051853 0 0.080829 -0.046667 0 0.083708 -0.04128 0 0.086229 -0.035717 0 0.08838 -0.030001 0 0.090153 -0.024156 0 0.09154 -0.018208 0 0.092535 -0.012182 0 0.093133 -0.006104 0 0.096667 0 0 0.072678 -0.063737 0 0.076691 -0.058847 0 0.080375 -0.053705 0 0.083716 -0.048333 0 0.086698 -0.042755 0 0.089308 -0.036993 0 0.091537 -0.031072 0 0.093373 -0.025019 0 0.094809 -0.018859 0 0.09584 -0.012618 0 0.09646 -0.006322 0 0.1 0 0 0.075184 -0.065935 0 0.079335 -0.060876 0 0.083147 -0.055557 0 0.086603 -0.05 0 0.089687 -0.044229 0 0.092388 -0.038268 0 0.094693 -0.032144 0 0.096593 -0.025882 0 0.098079 -0.019509 0 0.099144 -0.013053 0 0.099786 -0.00654 0 0.06364 0.06364 0 0.089807 0.005886 0 0.08923 0.011747 0 0.088271 0.017558 0 0.086933 0.023294 0 0.085224 0.02893 0 0.083149 0.034442 0 0.080719 0.039806 0 0.077942 0.045 0 0.074832 0.050001 0 0.071402 0.054789 0 0.067666 0.059341 0 0.065997 0.065997 0 0.093133 0.006104 0 0.092535 0.012182 0 0.09154 0.018208 0 0.090153 0.024156 0 0.08838 0.030001 0 0.086229 0.035717 0 0.083708 0.04128 0 0.080829 0.046667 0 0.077604 0.051853 0 0.074046 0.056818 0 0.070172 0.061539 0 0.068354 0.068354 0 0.09646 0.006322 0 0.09584 0.012618 0 0.094809 0.018859 0 0.093373 0.025019 0 0.091537 0.031072 0 0.089308 0.036993 0 0.086698 0.042755 0 0.083716 0.048333 0 0.080375 0.053705 0 0.076691 0.058847 0 0.072678 0.063737 0 0.070711 0.070711 0 0.099786 0.00654 0 0.099144 0.013053 0 0.098079 0.019509 0 0.096593 0.025882 0 0.094693 0.032144 0 0.092388 0.038268 0 0.089687 0.044229 0 0.086603 0.05 0 0.083147 0.055557 0 0.079335 0.060876 0 0.075184 0.065935 0 0.059341 0.067666 0 0.054789 0.071402 0 0.050001 0.074832 0 0.045 0.077942 0 0.039806 0.080719 0 0.034442 0.083149 0 0.02893 0.085224 0 0.023294 0.086933 0 0.017558 0.088271 0 0.011747 0.08923 0 0.005886 0.089807 0 0.061539 0.070172 0 0.056818 0.074046 0 0.051853 0.077604 0 0.046667 0.080829 0 0.04128 0.083708 0 0.035717 0.086229 0 0.030001 0.08838 0 0.024156 0.090153 0 0.018208 0.09154 0 0.012182 0.092535 0 0.006104 0.093133 0 0.063737 0.072678 0 0.058847 0.076691 0 0.053705 0.080375 0 0.048333 0.083716 0 0.042755 0.086698 0 0.036993 0.089308 0 0.031072 0.091537 0 0.025019 0.093373 0 0.018859 0.094809 0 0.012618 0.09584 0 0.006322 0.09646 0 0.065935 0.075184 0 0.060876 0.079335 0 0.055557 0.083147 0 0.05 0.086603 0 0.044229 0.089687 0 0.038268 0.092388 0 0.032144 0.094693 0 0.025882 0.096593 0 0.019509 0.098079 0 0.013053 0.099144 0 0.00654 0.099786 0 
</DataArray>
</Points>
<Cells>
<DataArray Name="connectivity" format="ascii" type="Int64">