<?xml version="1.0"?>
<VTKFile byte_order="LittleEndian" type="UnstructuredGrid" version="0.1">
<UnstructuredGrid>
<Piece NumberOfCells="288" NumberOfPoints="384">
<PointData>
<DataArray Name="Warping_X" format="ascii" type="Float64">
0.196478 0.240269 0.215668 0.231717 0.244613 0.254386 0.261136 0.264995 0.266152 0.264825 0.261276 0.255792 0.24868 0.247766 0.209247 0.229101 0.24558 0.258659 0.268395 0.274891 0.278299 0.278816 0.276691 0.272199 0.265653 0.257391 0.255257 0.22257 0.24307 0.259955 0.273195 0.282863 0.289067 0.291972 0.291804 0.288817 0.283318 0.275648 0.266166 0.26274 0.236433 0.257564 0.274826 0.288216 0.297784 0.303655 0.306016 0.305103 0.301202 0.294635 0.285771 0.275003 0.152662 0.230896 0.220907 0.210637 0.200422 0.190574 0.181389 0.173131 0.166039 0.160308 0.156099 0.153527 0.149998 0.237143 0.225896 0.21439 0.202985 0.192019 0.181813 0.172654 0.164795 0.158453 0.153797 0.150954 0.146792 0.243315 0.230741 0.217932 0.205273 0.193134 0.181855 0.171745 0.163084 0.156099 0.150973 0.147844 0.14305 0.24941 0.235442 0.221264 0.207291 0.193919 0.181513 0.170412 0.160906 0.153246 0.147631 0.144202 0.240269 0.153527 0.156099 0.160308 0.166039 0.173131 0.181389 0.190574 0.200422 0.210637 0.220907 0.230896 0.247766 0.150954 0.153797 0.158453 0.164795 0.172654 0.181813 0.192019 0.202985 0.21439 0.225896 0.237143 0.255257 0.147844 0.150973 0.156099 0.163084 0.171745 0.181855 0.193134 0.205273 0.217932 0.230741 0.243315 0.26274 0.144202 0.147631 0.153246 0.160906 0.170412 0.181513 0.193919 0.207291 0.221264 0.235442 0.24941 0.196478 0.24868 0.255792 0.261276 0.264825 0.266152 0.264995 0.261136 0.254386 0.244613 0.231717 0.215668 0.209247 0.257391 0.265653 0.272199 0.276691 0.278816 0.278299 0.274891 0.268395 0.258659 0.24558 0.229101 0.22257 0.266166 0.275648 0.283318 0.288817 0.291804 0.291973 0.289067 0.282863 0.273195 0.259955 0.24307 0.236433 0.275003 0.285771 0.294635 0.301202 0.305103 0.306016 0.303655 0.297784 0.288216 0.274826 0.257564 -0.238185 0.173172 0.146863 0.117574 0.0854301 0.0506341 0.0134373 -0.0258229 -0.0667785 -0.108981 -0.151965 -0.195206 -0.244817 0.185773 0.15893 0.128821 0.0955619 0.0593611 0.0205075 -0.0206545 -0.06371 -0.10818 -0.153567 -0.1993 -0.251459 0.198843 0.171476 0.140514 0.106108 0.0684727 0.0279037 -0.015201 -0.0604035 -0.107208 -0.155049 -0.203341 -0.258089 0.212456 0.184537 0.152711 0.117116 0.0779968 0.0356855 -0.00942254 -0.0568353 -0.106026 -0.156393 -0.207304 -0.548328 -0.280344 -0.321126 -0.359992 -0.396409 -0.429877 -0.45991 -0.486102 -0.50806 -0.525488 -0.538113 -0.545762 -0.574551 -0.28952 -0.332806 -0.3741 -0.412811 -0.448408 -0.48038 -0.508259 -0.531652 -0.550213 -0.56367 -0.571818 -0.601263 -0.298767 -0.344624 -0.388391 -0.429463 -0.467242 -0.501183 -0.530808 -0.555661 -0.575382 -0.58969 -0.598359 -0.628455 -0.308067 -0.356554 -0.40287 -0.446352 -0.486364 -0.522339 -0.553734 -0.580091 -0.601012 -0.616175 -0.625376 -0.238185 -0.545762 -0.538113 -0.525488 -0.50806 -0.486102 -0.45991 -0.429877 -0.396409 -0.359992 -0.321126 -0.280344 -0.244817 -0.571818 -0.56367 -0.550213 -0.531652 -0.508259 -0.48038 -0.448408 -0.412812 -0.3741 -0.332806 -0.28952 -0.251459 -0.598359 -0.58969 -0.575382 -0.555661 -0.530808 -0.501183 -0.467242 -0.429463 -0.388391 -0.344624 -0.298767 -0.258089 -0.625376 -0.616175 -0.601012 -0.580091 -0.553734 -0.522339 -0.486364 -0.446352 -0.40287 -0.356554 -0.308067 -0.195206 -0.151965 -0.108981 -0.0667785 -0.0258229 0.0134373 0.0506341 0.0854301 0.117574 0.146863 0.173172 -0.1993 -0.153567 -0.10818 -0.06371 -0.0206546 0.0205075 0.0593611 0.0955619 0.128821 0.15893 0.185773 -0.203341 -0.155049 -0.107208 -0.0604035 -0.015201 0.0279037 0.0684727 0.106108 0.140514 0.171476 0.198843 -0.207304 -0.156393 -0.106026 -0.0568353 -0.00942255 0.0356855 0.0779967 0.117116 0.152711 0.184537 0.212456 
</DataArray>
<DataArray Name="Warping_Y" format="ascii" type="Float64">
-0.280534 -0.0254677 -0.257875 -0.234202 -0.209987 -0.185619 -0.161487 -0.137946 -0.115339 -0.0939602 -0.0740819 -0.0559248 -0.0396774 -0.0201732 -0.292317 -0.26782 -0.242333 -0.216306 -0.190171 -0.164333 -0.139186 -0.115086 -0.0923548 -0.0712845 -0.0521074 -0.0350244 -0.0143447 -0.304102 -0.277699 -0.250319 -0.222418 -0.194452 -0.166857 -0.140043 -0.114407 -0.0902903 -0.0679926 -0.0477752 -0.0298418 -0.00798589 -0.31589 -0.287501 -0.258171 -0.228333 -0.198467 -0.169051 -0.140531 -0.113309 -0.0877632 -0.0642118 -0.0429299 -0.0241335 2.04351e-09 -0.0133875 -0.00347486 0.00428075 0.00993845 0.0136016 0.0154128 0.0155613 0.0142646 0.0117762 0.00836991 0.00434199 1.95046e-09 -0.0076485 0.00251054 0.0103213 0.0158445 0.0191956 0.0205355 0.0200646 0.0180248 0.014689 0.0103569 0.00534893 1.85739e-09 -0.00138007 0.00901408 0.016853 0.0222129 0.0252155 0.0260347 0.0248942 0.0220526 0.0178071 0.0124832 0.00642588 1.76434e-09 0.00541408 0.0160274 0.0238769 0.0290408 0.0316538 0.0319097 0.030046 0.0263457 0.021128 0.0147452 0.00757181 0.0254677 -0.00434198 -0.00836991 -0.0117761 -0.0142646 -0.0155613 -0.0154128 -0.0136016 -0.00993845 -0.00428075 0.00347487 0.0133875 0.0201732 -0.00534893 -0.0103569 -0.014689 -0.0180248 -0.0200646 -0.0205355 -0.0191956 -0.0158445 -0.0103213 -0.00251053 0.00764851 0.0143447 -0.00642588 -0.0124832 -0.0178071 -0.0220526 -0.0248942 -0.0260347 -0.0252155 -0.0222129 -0.016853 -0.00901407 0.00138008 0.00798589 -0.00757181 -0.0147452 -0.021128 -0.0263457 -0.030046 -0.0319097 -0.0316538 -0.0290408 -0.0238769 -0.0160274 -0.00541407 0.280534 0.0396774 0.0559248 0.0740819 0.0939602 0.115339 0.137946 0.161487 0.185619 0.209987 0.234202 0.257875 0.292317 0.0350244 0.0521074 0.0712845 0.0923548 0.115086 0.139186 0.164333 0.190171 0.216306 0.242333 0.26782 0.304102 0.0298418 0.0477752 0.0679926 0.0902903 0.114407 0.140043 0.166857 0.194452 0.222418 0.250319 0.277699 0.31589 0.0241335 0.0429299 0.0642118 0.0877632 0.113309 0.140531 0.169051 0.198467 0.228333 0.258171 0.287501 0.396743 0.30265 0.323926 0.344005 0.362351 0.378484 0.391935 0.402294 0.409182 0.41229 0.411371 0.406224 0.421164 0.316086 0.339191 0.361019 0.381031 0.398695 0.413511 0.425019 0.432826 0.43658 0.436009 0.430914 0.446098 0.329713 0.354673 0.37831 0.400038 0.419278 0.435494 0.448196 0.456938 0.461358 0.461162 0.45612 0.471569 0.343492 0.370352 0.395865 0.419364 0.440231 0.457892 0.471817 0.48154 0.486651 0.486835 0.481861 -5.44356e-09 0.382879 0.364676 0.342225 0.315726 0.28542 0.251623 0.214712 0.175116 0.133315 0.0898276 0.0452008 -4.75721e-09 0.406707 0.387583 0.363904 0.335867 0.30373 0.267845 0.22861 0.186486 0.141995 0.0956875 0.0481527 -4.07651e-09 0.43104 0.410982 0.386044 0.356435 0.322445 0.284424 0.242811 0.198111 0.150871 0.101683 0.0511693 -3.39013e-09 0.455901 0.434889 0.408673 0.377464 0.341566 0.301365 0.257335 0.209997 0.159939 0.107804 0.0542532 -0.396743 -0.0452009 -0.0898276 -0.133315 -0.175116 -0.214712 -0.251623 -0.28542 -0.315726 -0.342225 -0.364676 -0.382879 -0.421164 -0.0481527 -0.0956875 -0.141995 -0.186486 -0.22861 -0.267845 -0.30373 -0.335867 -0.363904 -0.387583 -0.406707 -0.446098 -0.0511693 -0.101683 -0.150871 -0.198111 -0.242811 -0.284424 -0.322445 -0.356435 -0.386044 -0.410982 -0.43104 -0.471569 -0.0542532 -0.107804 -0.159939 -0.209997 -0.257335 -0.301365 -0.341566 -0.377464 -0.408673 -0.434889 -0.455901 -0.406224 -0.411371 -0.41229 -0.409182 -0.402294 -0.391935 -0.378484 -0.362351 -0.344005 -0.323926 -0.30265 -0.430914 -0.436009 -0.43658 -0.432826 -0.425019 -0.413511 -0.398695 -0.381031 -0.361019 -0.339191 -0.316086 -0.45612 -0.461162 -0.461358 -0.456938 -0.448196 -0.435494 -0.419278 -0.400038 -0.37831 -0.354673 -0.329713 -0.481861 -0.486835 -0.486651 -0.48154 -0.471817 -0.457892 -0.440231 -0.419364 -0.395865 -0.370352 -0.343492 
</DataArray>
<DataArray Name="Warping_Z" format="ascii" type="Float64">
0 0 0 0 0 0 0 0 0 0 0 0 0 0 0 0 0 0 0 0 0 0 0 0 0 0 0 0 0 0 0 0 0 0 0 0 0 0 0 0 0 0 0 0 0 0 0 0 0 0 0 0 0 0 0 0 0 0 0 0 0 0 0 0 0 0 0 0 0 0 0 0 0 0 0 0 0 0 0 0 0 0 0 0 0 0 0 0 0 0 0 0 0 0 0 0 0 0 0 0 0 0 0 0 0 0 0 0 0 0 0 0 0 0 0 0 0 0 0 0 0 0 0 0 0 0 0 0 0 0 0 0 0 0 0 0 0 0 0 0 0 0 0 0 0 0 0 0 0 0 0 0 0 0 0 0 0 0 0 0 0 0 0 0 0 0 0 0 0 0 0 0 0 0 0 0 0 0 0 0 0 0 0 0 0 0 0 0 0 0 0 0 0 0 0 0 0 0 0 0 0 0 0 0 0 0 0 0 0 0 0 0 0 0 0 0 0 0 0 0 0 0 0 0 0 0 0 0 0 0 0 0 0 0 0 0 0 0 0 0 0 0 0 0 0 0 0 0 0 0 0 0 0 0 0 0 0 0 0 0 0 0 0 0 0 0 0 0 0 0 0 0 0 0 0 0 0 0 0 0 0 0 0 0 0 0 0 0 0 0 0 0 0 0 0 0 0 0 0 0 0 0 0 0 0 0 0 0 0 0 0 0 0 0 0 0 0 0 0 0 0 0 0 0 0 0 0 0 0 0 0 0 0 0 0 0 0 0 0 0 0 0 0 0 0 0 0 0 0 0 0 0 0 0 0 0 0 0 0 0 0 0 0 0 0 0 0 0 0 0 0 0 0 0 0 0 0 0 0 0 0 0 0 0 
</DataArray>
</PointData>
<CellData>
<DataArray Name="MaterialId" format="ascii" type="Float64">
1 1 1 1 1 1 1 1 1 1 1 1 1 1 1 1 1 1 1 1 1 1 1 1 1 1 1 1 1 1 1 1 1 1 1 1 1 1 1 1 1 1 1 1 1 1 1 1 1 1 1 1 1 1 1 1 1 1 1 1 1 1 1 1 1 1 1 1 1 1 1 1 1 1 1 1 1 1 1 1 1 1 1 1 1 1 1 1 1 1 1 1 1 1 1 1 1 1 1 1 1 1 1 1 1 1 1 1 1 1 1 1 1 1 1 1 1 1 1 1 1 1 1 1 1 1 1 1 1 1 1 1 1 1 1 1 1 1 1 1 1 1 1 1 2 2 2 2 2 2 2 2 2 2 2 2 2 2 2 2 2 2 2 2 2 2 2 2 2 2 2 2 2 2 2 2 2 2 2 2 2 2 2 2 2 2 2 2 2 2 2 2 2 2 2 2 2 2 2 2 2 2 2 2 2 2 2 2 2 2 2 2 2 2 2 2 2 2 2 2 2 2 2 2 2 2 2 2 2 2 2 2 2 2 2 2 2 2 2 2 2 2 2 2 2 2 2 2 2 2 2 2 2 2 2 2 2 2 2 2 2 2 2 2 2 2 2 2 2 2 2 2 2 2 2 2 2 2 2 2 2 2 2 2 2 2 2 2 
</DataArray>
<DataArray Name="FiberAngle" format="ascii" type="Float64">
0 0 0 0 0 0 0 0 0 0 0 0 0 0 0 0 0 0 0 0 0 0 0 0 0 0 0 0 0 0 0 0 0 0 0 0 0 0 0 0 0 0 0 0 0 0 0 0 0 0 0 0 0 0 0 0 0 0 0 0 0 0 0 0 0 0 0 0 0 0 0 0 0 0 0 0 0 0 0 0 0 0 0 0 0 0 0 0 0 0 0 0 0 0 0 0 0 0 0 0 0 0 0 0 0 0 0 0 0 0 0 0 0 0 0 0 0 0 0 0 0 0 0 0 0 0 0 0 0 0 0 0 0 0 0 0 0 0 0 0 0 0 0 0 0 0 0 0 0 0 0 0 0 0 0 0 0 0 0 0 0 0 0 0 0 0 0 0 0 0 0 0 0 0 0 0 0 0 0 0 0 0 0 0 0 0 0 0 0 0 0 0 0 0 0 0 0 0 0 0 0 0 0 0 0 0 0 0 0 0 0 0 0 0 0 0 0 0 0 0 0 0 0 0 0 0 0 0 0 0 0 0 0 0 0 0 0 0 0 0 0 0 0 0 0 0 0 0 0 0 0 0 0 0 0 0 0 0 0 0 0 0 0 0 0 0 0 0 0 0 0 0 0 0 0 0 0 0 0 0 0 0 0 0 0 0 0 0 
</DataArray>
<DataArray Name="Strain_11" format="ascii" type="Float64">
-3.38172 -3.0996 -2.81847 -2.54004 -2.266 -1.99751 -1.73574 -1.48178 -1.23678 -1.00173 -0.777662 -0.565533 -3.3782 -3.08698 -2.79556 -2.5082 -2.22515 -1.94758 -1.67679 -1.41391 -1.16004 -0.916301 -0.683702 -0.46326 -3.37257 -3.07236 -2.77247 -2.47579 -2.18351 -1.89683 -1.61695 -1.34507 -1.08238 -0.829956 -0.588889 -0.360246 -0.366201 -0.180543 -0.00926413 0.146885 0.287305 0.411435 0.518734 0.608806 0.681303 0.735926 0.772439 0.790736 -0.255926 -0.0625874 0.115916 0.27886 0.425532 0.555226 0.667495 0.761794 0.837704 0.894952 0.933229 0.952421 -0.145025 0.0558123 0.241432 0.410962 0.563657 0.698818 0.815853 0.914218 0.993443 1.05318 1.09317 1.11322 0.790736 0.772439 0.735926 0.681303 0.608806 0.518734 0.411435 0.287305 0.146885 -0.00926413 -0.180543 -0.366201 0.952421 0.933229 0.894952 0.837704 0.761794 0.667495 0.555226 0.425532 0.27886 0.115916 -0.0625874 -0.255926 1.11322 1.09317 1.05318 0.993443 0.914218 0.815853 0.698818 0.563657 0.410962 0.241432 0.0558123 -0.145025 -0.565533 -0.777662 -1.00173 -1.23678 -1.48178 -1.73574 -1.99751 -2.266 -2.54004 -2.81847 -3.0996 -3.38172 -0.46326 -0.683702 -0.916301 -1.16004 -1.41391 -1.67679 -1.94758 -2.22515 -2.5082 -2.79556 -3.08698 -3.3782 -0.360246 -0.588889 -0.829956 -1.08238 -1.34507 -1.61695 -1.89683 -2.18351 -2.47579 -2.77247 -3.07236 -3.37257 -3.77265 -4.04662 -4.31495 -4.5804 -4.84164 -5.09798 -5.34855 -5.5925 -5.8289 -6.05691 -6.27556 -6.48389 -3.66482 -3.96225 -4.25347 -4.54233 -4.82669 -5.10542 -5.37719 -5.64086 -5.89529 -6.13936 -6.37206 -6.59238 -3.57004 -3.88212 -4.19653 -4.50679 -4.81258 -5.11203 -5.40364 -5.68591 -5.95745 -6.21703 -6.46348 -6.69576 -6.68096 -6.86579 -7.03749 -7.19508 -7.33771 -7.46456 -7.57482 -7.66782 -7.74299 -7.79981 -7.83788 -7.85698 -6.79939 -6.99222 -7.17007 -7.33226 -7.47812 -7.60697 -7.71842 -7.81197 -7.88723 -7.94396 -7.98186 -8.00088 -6.91294 -7.1142 -7.29893 -7.46647 -7.61637 -7.74822 -7.86175 -7.95666 -8.03277 -8.08997 -8.12815 -8.14726 -7.85698 -7.83788 -7.79981 -7.74299 -7.66782 -7.57482 -7.46456 -7.33771 -7.19508 -7.03749 -6.86579 -6.68096 -8.00088 -7.98186 -7.94396 -7.88723 -7.81197 -7.71842 -7.60697 -7.47812 -7.33226 -7.17007 -6.99222 -6.79939 -8.14726 -8.12815 -8.08997 -8.03277 -7.95666 -7.86175 -7.74822 -7.61637 -7.46647 -7.29893 -7.1142 -6.91294 -6.48389 -6.27556 -6.05691 -5.8289 -5.5925 -5.34855 -5.09798 -4.84164 -4.5804 -4.31495 -4.04662 -3.77265 -6.59238 -6.37206 -6.13936 -5.89529 -5.64086 -5.37719 -5.10542 -4.82669 -4.54233 -4.25347 -3.96225 -3.66482 -6.69576 -6.46348 -6.21703 -5.95745 -5.68591 -5.40364 -5.11203 -4.81258 -4.50679 -4.19653 -3.88212 -3.57004 
</DataArray>
<DataArray Name="Strain_22" format="ascii" type="Float64">
-3.388 -3.10128 -2.82161 -2.54423 -2.27102 -2.00296 -1.74135 -1.48714 -1.2415 -1.00547 -0.780017 -0.56619 -3.38278 -3.08514 -2.79506 -2.50771 -2.22441 -1.9468 -1.67588 -1.41296 -1.15911 -0.915349 -0.682813 -0.462445 -3.37822 -3.06923 -2.76928 -2.47152 -2.17843 -1.89121 -1.61119 -1.3395 -1.07738 -0.825914 -0.58614 -0.359131 -0.364873 -0.177002 -0.00337977 0.155227 0.298091 0.424569 0.534079 0.626107 0.700258 0.756179 0.793587 0.812335 -0.255208 -0.0620069 0.11639 0.279167 0.425661 0.555258 0.667353 0.761527 0.837333 0.894481 0.932728 0.95187 -0.145827 0.0528966 0.236208 0.403388 0.55372 0.686577 0.801476 0.897938 0.97556 1.03403 1.07315 1.09276 0.812335 0.793587 0.756179 0.700258 0.626107 0.534079 0.424569 0.298091 0.155227 -0.00337977 -0.177002 -0.364873 0.95187 0.932728 0.894481 0.837333 0.761527 0.667353 0.555258 0.425661 0.279167 0.11639 -0.0620069 -0.255208 1.09276 1.07315 1.03403 0.97556 0.897938 0.801476 0.686577 0.55372 0.403388 0.236208 0.0528966 -0.145827 -0.56619 -0.780017 -1.00547 -1.2415 -1.48714 -1.74135 -2.00296 -2.27102 -2.54423 -2.82161 -3.10128 -3.388 -0.462445 -0.682813 -0.915349 -1.15911 -1.41296 -1.67588 -1.9468 -2.22441 -2.50771 -2.79506 -3.08514 -3.38278 -0.359131 -0.58614 -0.825914 -1.07738 -1.3395 -1.61119 -1.89121 -2.17843 -2.47152 -2.76928 -3.06923 -3.37822 -3.65786 -3.92417 -4.21109 -4.49174 -4.76881 -5.04013 -5.30431 -5.56014 -5.80626 -6.04155 -6.265 -6.4756 -3.68102 -3.96751 -4.25607 -4.54218 -4.82371 -5.09982 -5.3694 -5.6312 -5.88417 -6.12729 -6.35943 -6.57964 -3.7002 -4.006 -4.29954 -4.59205 -4.8796 -5.1619 -5.43787 -5.7066 -5.96707 -6.21829 -6.45926 -6.68888 -6.67255 -6.85508 -7.02259 -7.17456 -7.31053 -7.43014 -7.53311 -7.6192 -7.68827 -7.74016 -7.7748 -7.79212 -6.78694 -6.9804 -7.15922 -7.32254 -7.46967 -7.59995 -7.71271 -7.80752 -7.88388 -7.94148 -7.98004 -7.99934 -6.90609 -7.10986 -7.29913 -7.4729 -7.63018 -7.77002 -7.89161 -7.99419 -8.07707 -8.13971 -8.18172 -8.2028 -7.79212 -7.7748 -7.74016 -7.68827 -7.6192 -7.53311 -7.43014 -7.31053 -7.17456 -7.02259 -6.85508 -6.67255 -7.99934 -7.98004 -7.94148 -7.88388 -7.80752 -7.71271 -7.59995 -7.46967 -7.32254 -7.15922 -6.9804 -6.78694 -8.2028 -8.18172 -8.13971 -8.07707 -7.99419 -7.89161 -7.77002 -7.63018 -7.4729 -7.29913 -7.10986 -6.90609 -6.4756 -6.265 -6.04155 -5.80626 -5.56014 -5.30431 -5.04013 -4.76881 -4.49174 -4.21109 -3.92417 -3.65786 -6.57964 -6.35943 -6.12729 -5.88417 -5.6312 -5.3694 -5.09982 -4.82371 -4.54218 -4.25607 -3.96751 -3.68102 -6.68888 -6.45926 -6.21829 -5.96707 -5.7066 -5.43787 -5.1619 -4.8796 -4.59205 -4.29954 -4.006 -3.7002 
</DataArray>
<DataArray Name="Strain_12" format="ascii" type="Float64">
0.00223831 -0.000998527 0.0016594 0.00260133 0.00383137 0.00531845 0.00699325 0.00867976 0.010419 0.0120713 0.0135301 0.0147942 0.00125063 0.000670165 0.00102408 0.000918193 0.000772725 0.000638244 0.000467944 0.00033084 0.000157307 -4.41282e-05 -0.000162068 -0.000329592 -0.00119805 0.00156306 -0.00100578 -0.00186874 -0.0030756 -0.00457845 -0.00618852 -0.00792478 -0.00961376 -0.0112304 -0.0127287 -0.0139816 0.0157457 0.0163704 0.0165893 0.0163848 0.0157739 0.0147219 0.0132392 0.0114232 0.00923047 0.00680378 0.00415579 0.00140426 -0.000457532 -0.000539541 -0.000643052 -0.000648228 -0.0007106 -0.000683506 -0.000595857 -0.000577406 -0.000460273 -0.000335242 -0.00020886 -7.1141e-05 -0.0149547 -0.0155814 -0.0158395 -0.0156899 -0.0151133 -0.0141037 -0.0127569 -0.0109644 -0.00887698 -0.00656089 -0.00400158 -0.00135282 -0.00140426 -0.00415579 -0.00680378 -0.00923047 -0.0114232 -0.0132392 -0.0147219 -0.0157739 -0.0163848 -0.0165893 -0.0163704 -0.0157457 7.1141e-05 0.00020886 0.000335242 0.000460273 0.000577406 0.000595857 0.000683506 0.0007106 0.000648228 0.000643052 0.000539541 0.000457532 0.00135282 0.00400158 0.00656089 0.00887698 0.0109644 0.0127569 0.0141037 0.0151133 0.0156899 0.0158395 0.0155814 0.0149547 -0.0147942 -0.0135301 -0.0120713 -0.010419 -0.00867976 -0.00699325 -0.00531845 -0.00383137 -0.00260133 -0.0016594 0.000998527 -0.00223831 0.000329592 0.000162068 4.41282e-05 -0.000157307 -0.00033084 -0.000467944 -0.000638244 -0.000772725 -0.000918193 -0.00102408 -0.000670165 -0.00125063 0.0139816 0.0127287 0.0112304 0.00961376 0.00792478 0.00618852 0.00457845 0.0030756 0.00186874 0.00100578 -0.00156306 0.00119805 0.0134949 -0.0151779 -0.0232 -0.0313421 -0.0355208 -0.0365563 -0.0346859 -0.0303196 -0.0240542 -0.0163975 -0.007897 0.000807027 0.0122848 0.0217382 0.0188837 0.0194726 0.0185283 0.0173782 0.0158035 0.0139022 0.0118192 0.00963028 0.00734056 0.00516298 0.0152672 0.0347995 0.0460096 0.0529422 0.0565002 0.0563609 0.0530659 0.0471098 0.0390089 0.0294283 0.0190283 0.00839654 0.00922125 0.0168111 0.0231839 0.0280068 0.0310113 0.0320897 0.0312521 0.0284866 0.024108 0.0182744 0.0114145 0.00387549 0.00310126 0.0012188 -0.000330285 -0.00166277 -0.00254139 -0.00313018 -0.00341374 -0.00323785 -0.00287357 -0.0022511 -0.00142252 -0.000486211 -0.00183857 -0.0111472 -0.0190437 -0.0251622 -0.029272 -0.03124 -0.0309281 -0.0286378 -0.0244281 -0.0186096 -0.0116796 -0.00397078 -0.00387549 -0.0114145 -0.0182745 -0.024108 -0.0284866 -0.0312521 -0.0320898 -0.0310113 -0.0280069 -0.023184 -0.0168111 -0.0092213 0.000486202 0.00142251 0.00225109 0.00287356 0.00323784 0.00341374 0.00313018 0.00254138 0.00166277 0.000330284 -0.00121881 -0.00310126 0.00397077 0.0116796 0.0186096 0.0244281 0.0286378 0.0309281 0.0312401 0.029272 0.0251622 0.0190438 0.0111473 0.00183861 -0.000807075 0.00789696 0.0163975 0.0240541 0.0303195 0.0346859 0.0365563 0.0355208 0.0313421 0.0232 0.0151779 -0.0134949 -0.00516298 -0.00734056 -0.00963028 -0.0118192 -0.0139022 -0.0158035 -0.0173782 -0.0185283 -0.0194726 -0.0188838 -0.0217383 -0.0122848 -0.00839651 -0.0190283 -0.0294283 -0.0390089 -0.0471098 -0.0530659 -0.056361 -0.0565002 -0.0529422 -0.0460097 -0.0347995 -0.0152673 
</DataArray>
<DataArray Name="Strain_13" format="ascii" type="Float64">
0 0 0 0 0 0 0 0 0 0 0 0 0 0 0 0 0 0 0 0 0 0 0 0 0 0 0 0 0 0 0 0 0 0 0 0 0 0 0 0 0 0 0 0 0 0 0 0 0 0 0 0 0 0 0 0 0 0 0 0 0 0 0 0 0 0 0 0 0 0 0 0 0 0 0 0 0 0 0 0 0 0 0 0 0 0 0 0 0 0 0 0 0 0 0 0 0 0 0 0 0 0 0 0 0 0 0 0 0 0 0 0 0 0 0 0 0 0 0 0 0 0 0 0 0 0 0 0 0 0 0 0 0 0 0 0 0 0 0 0 0 0 0 0 0 0 0 0 0 0 0 0 0 0 0 0 0 0 0 0 0 0 0 0 0 0 0 0 0 0 0 0 0 0 0 0 0 0 0 0 0 0 0 0 0 0 0 0 0 0 0 0 0 0 0 0 0 0 0 0 0 0 0 0 0 0 0 0 0 0 0 0 0 0 0 0 0 0 0 0 0 0 0 0 0 0 0 0 0 0 0 0 0 0 0 0 0 0 0 0 0 0 0 0 0 0 0 0 0 0 0 0 0 0 0 0 0 0 0 0 0 0 0 0 0 0 0 0 0 0 0 0 0 0 0 0 0 0 0 0 0 0 0 0 0 0 0 0 
</DataArray>
<DataArray Name="Strain_23" format="ascii" type="Float64">
0 0 0 0 0 0 0 0 0 0 0 0 0 0 0 0 0 0 0 0 0 0 0 0 0 0 0 0 0 0 0 0 0 0 0 0 0 0 0 0 0 0 0 0 0 0 0 0 0 0 0 0 0 0 0 0 0 0 0 0 0 0 0 0 0 0 0 0 0 0 0 0 0 0 0 0 0 0 0 0 0 0 0 0 0 0 0 0 0 0 0 0 0 0 0 0 0 0 0 0 0 0 0 0 0 0 0 0 0 0 0 0 0 0 0 0 0 0 0 0 0 0 0 0 0 0 0 0 0 0 0 0 0 0 0 0 0 0 0 0 0 0 0 0 0 0 0 0 0 0 0 0 0 0 0 0 0 0 0 0 0 0 0 0 0 0 0 0 0 0 0 0 0 0 0 0 0 0 0 0 0 0 0 0 0 0 0 0 0 0 0 0 0 0 0 0 0 0 0 0 0 0 0 0 0 0 0 0 0 0 0 0 0 0 0 0 0 0 0 0 0 0 0 0 0 0 0 0 0 0 0 0 0 0 0 0 0 0 0 0 0 0 0 0 0 0 0 0 0 0 0 0 0 0 0 0 0 0 0 0 0 0 0 0 0 0 0 0 0 0 0 0 0 0 0 0 0 0 0 0 0 0 0 0 0 0 0 0 
</DataArray>
<DataArray Name="Strain_33" format="ascii" type="Float64">
1 1 1 1 1 1 1 1 1 1 1 1 1 1 1 1 1 1 1 1 1 1 1 1 1 1 1 1 1 1 1 1 1 1 1 1 1 1 1 1 1 1 1 1 1 1 1 1 1 1 1 1 1 1 1 1 1 1 1 1 1 1 1 1 1 1 1 1 1 1 1 1 1 1 1 1 1 1 1 1 1 1 1 1 1 1 1 1 1 1 1 1 1 1 1 1 1 1 1 1 1 1 1 1 1 1 1 1 1 1 1 1 1 1 1 1 1 1 1 1 1 1 1 1 1 1 1 1 1 1 1 1 1 1 1 1 1 1 1 1 1 1 1 1 1 1 1 1 1 1 1 1 1 1 1 1 1 1 1 1 1 1 1 1 1 1 1 1 1 1 1 1 1 1 1 1 1 1 1 1 1 1 1 1 1 1 1 1 1 1 1 1 1 1 1 1 1 1 1 1 1 1 1 1 1 1 1 1 1 1 1 1 1 1 1 1 1 1 1 1 1 1 1 1 1 1 1 1 1 1 1 1 1 1 1 1 1 1 1 1 1 1 1 1 1 1 1 1 1 1 1 1 1 1 1 1 1 1 1 1 1 1 1 1 1 1 1 1 1 1 1 1 1 1 1 1 1 1 1 1 1 1 1 1 1 1 1 1 
</DataArray>
<DataArray Name="Stress_11" format="ascii" type="Float64">
-442.08 -402.768 -363.764 -325.122 -287.083 -249.806 -213.453 -178.174 -144.128 -111.456 -80.2963 -50.7868 -441.544 -400.918 -360.481 -320.57 -281.25 -242.698 -205.085 -168.573 -133.313 -99.4598 -67.1561 -36.5413 -440.791 -398.851 -357.199 -315.963 -275.346 -235.515 -196.638 -158.883 -122.414 -87.3816 -53.936 -22.2254 -23.0466 2.80073 26.6545 48.4102 67.9809 85.2863 100.25 112.815 122.93 130.552 135.648 138.202 -7.74759 19.1012 43.8904 66.5169 86.883 104.893 120.481 133.575 144.115 152.064 157.379 160.043 7.61316 35.4485 61.1649 84.6454 105.787 124.496 140.691 154.3 165.259 173.521 179.051 181.823 138.202 135.648 130.552 122.93 112.815 100.25 85.2863 67.9809 48.4102 26.6545 2.80073 -23.0466 160.043 157.379 152.064 144.115 133.575 120.481 104.893 86.883 66.5169 43.8904 19.1012 -7.74759 181.823 179.051 173.521 165.259 154.3 140.691 124.496 105.787 84.6454 61.1649 35.4485 7.61316 -50.7868 -80.2963 -111.456 -144.128 -178.174 -213.453 -249.806 -287.083 -325.122 -363.764 -402.768 -442.08 -36.5413 -67.1561 -99.4598 -133.313 -168.573 -205.085 -242.698 -281.25 -320.57 -360.481 -400.918 -441.544 -22.2254 -53.936 -87.3816 -122.414 -158.883 -196.638 -235.515 -275.346 -315.963 -357.199 -398.851 -440.791 -0.00493013 -0.00530851 -0.00568636 -0.00605927 -0.00642649 -0.00678668 -0.00713847 -0.00748059 -0.00781163 -0.00813033 -0.00843535 -0.00872532 -0.00481675 -0.00522681 -0.00563054 -0.00603097 -0.00642513 -0.00681152 -0.00718838 -0.00755406 -0.00790703 -0.00824576 -0.0085688 -0.00887477 -0.00471676 -0.00514847 -0.00557935 -0.00600533 -0.00642498 -0.00683612 -0.00723679 -0.00762507 -0.00799913 -0.00835733 -0.00869811 -0.00901997 -0.008999 -0.00925507 -0.00949237 -0.00970969 -0.00990593 -0.0100801 -0.0102312 -0.0103585 -0.0104612 -0.0105387 -0.0105906 -0.0106167 -0.00916236 -0.00943036 -0.00967764 -0.00990322 -0.0101062 -0.0102855 -0.0104407 -0.0105709 -0.0106758 -0.0107548 -0.0108076 -0.0108341 -0.00932162 -0.00960186 -0.00985967 -0.0100941 -0.0103044 -0.0104897 -0.0106496 -0.0107836 -0.0108911 -0.0109721 -0.0110262 -0.0110533 -0.0106167 -0.0105906 -0.0105387 -0.0104612 -0.0103585 -0.0102312 -0.0100801 -0.00990593 -0.00970969 -0.00949237 -0.00925507 -0.008999 -0.0108341 -0.0108076 -0.0107548 -0.0106758 -0.0105709 -0.0104407 -0.0102855 -0.0101062 -0.00990322 -0.00967764 -0.00943036 -0.00916236 -0.0110533 -0.0110262 -0.0109721 -0.0108911 -0.0107836 -0.0106496 -0.0104897 -0.0103044 -0.0100941 -0.00985967 -0.00960186 -0.00932162 -0.00872532 -0.00843535 -0.00813033 -0.00781163 -0.00748059 -0.00713847 -0.00678668 -0.00642649 -0.00605927 -0.00568636 -0.00530851 -0.00493013 -0.00887477 -0.0085688 -0.00824576 -0.00790703 -0.00755406 -0.00718838 -0.00681152 -0.00642513 -0.00603097 -0.00563054 -0.00522681 -0.00481675 -0.00901997 -0.00869811 -0.00835733 -0.00799913 -0.00762507 -0.00723679 -0.00683612 -0.00642498 -0.00600533 -0.00557935 -0.00514847 -0.00471676 
</DataArray>
<DataArray Name="Stress_22" format="ascii" type="Float64">
-442.604 -402.909 -364.026 -325.471 -287.503 -250.26 -213.921 -178.62 -144.522 -111.767 -80.4925 -50.8415 -441.925 -400.765 -360.439 -320.528 -281.188 -242.632 -205.009 -168.493 -133.235 -99.3805 -67.0821 -36.4733 -441.262 -398.591 -356.933 -315.607 -274.923 -235.046 -196.159 -158.419 -121.998 -87.0448 -53.7069 -22.1325 -22.936 3.09581 27.1449 49.1054 68.8796 86.3809 101.529 114.257 124.509 132.24 137.411 140.002 -7.68778 19.1496 43.9299 66.5424 86.8938 104.896 120.47 133.553 144.084 152.024 157.337 159.997 7.5463 35.2055 60.7296 84.0143 104.959 123.476 139.493 152.944 163.769 171.925 177.383 180.118 140.002 137.411 132.24 124.509 114.257 101.529 86.3809 68.8796 49.1054 27.1449 3.09581 -22.936 159.997 157.337 152.024 144.084 133.553 120.47 104.896 86.8938 66.5424 43.9299 19.1496 -7.68778 180.118 177.383 171.925 163.769 152.944 139.493 123.476 104.959 84.0143 60.7296 35.2055 7.5463 -50.8415 -80.4925 -111.767 -144.522 -178.62 -213.921 -250.26 -287.503 -325.471 -364.026 -402.909 -442.604 -36.4733 -67.0821 -99.3805 -133.235 -168.493 -205.009 -242.632 -281.188 -320.528 -360.439 -400.765 -441.925 -22.1325 -53.7069 -87.0448 -121.998 -158.419 -196.159 -235.046 -274.923 -315.607 -356.933 -398.591 -441.262 -0.00483447 -0.00520647 -0.0055998 -0.00598538 -0.0063658 -0.00673847 -0.00710161 -0.00745362 -0.00779276 -0.00811753 -0.00842654 -0.00871841 -0.00483025 -0.00523119 -0.0056327 -0.00603085 -0.00642265 -0.00680686 -0.00718189 -0.00754602 -0.00789777 -0.0082357 -0.00855827 -0.00886415 -0.00482523 -0.0052517 -0.00566519 -0.00607638 -0.00648083 -0.00687767 -0.00726531 -0.00764231 -0.00800715 -0.00835838 -0.00869459 -0.00901424 -0.00899199 -0.00924614 -0.00947996 -0.00969259 -0.00988328 -0.0100514 -0.0101965 -0.010318 -0.0104156 -0.010489 -0.0105381 -0.0105626 -0.00915199 -0.00942051 -0.0096686 -0.00989512 -0.0100991 -0.0102797 -0.0104359 -0.0105672 -0.010673 -0.0107527 -0.0108061 -0.0108328 -0.00931592 -0.00959824 -0.00985984 -0.0100995 -0.0103159 -0.0105079 -0.0106745 -0.0108148 -0.0109281 -0.0110136 -0.0110708 -0.0110996 -0.0105626 -0.0105381 -0.010489 -0.0104156 -0.010318 -0.0101965 -0.0100514 -0.00988328 -0.00969259 -0.00947996 -0.00924614 -0.00899199 -0.0108328 -0.0108061 -0.0107527 -0.010673 -0.0105672 -0.0104359 -0.0102797 -0.0100991 -0.00989512 -0.0096686 -0.00942051 -0.00915199 -0.0110996 -0.0110708 -0.0110136 -0.0109281 -0.0108148 -0.0106745 -0.0105079 -0.0103159 -0.0100995 -0.00985984 -0.00959824 -0.00931592 -0.00871841 -0.00842654 -0.00811753 -0.00779276 -0.00745362 -0.00710161 -0.00673847 -0.0063658 -0.00598538 -0.0055998 -0.00520647 -0.00483447 -0.00886415 -0.00855827 -0.0082357 -0.00789777 -0.00754602 -0.00718189 -0.00680686 -0.00642265 -0.00603085 -0.0056327 -0.00523119 -0.00483025 -0.00901424 -0.00869459 -0.00835838 -0.00800715 -0.00764231 -0.00726531 -0.00687767 -0.00648083 -0.00607638 -0.00566519 -0.0052517 -0.00482523 
</DataArray>
<DataArray Name="Stress_12" format="ascii" type="Float64">
0.0932637 -0.0416056 0.069142 0.10839 0.159642 0.221604 0.291388 0.36166 0.434127 0.502973 0.56376 0.61643 0.0521099 0.0279237 0.0426705 0.0382583 0.0321971 0.0265937 0.0194978 0.0137851 0.00655449 -0.00183869 -0.00675288 -0.0137331 -0.0499192 0.0651281 -0.0419079 -0.077865 -0.128151 -0.19077 -0.257857 -0.330202 -0.400576 -0.467939 -0.530365 -0.582572 0.656075 0.682105 0.691226 0.682704 0.657251 0.613417 0.551638 0.475972 0.384606 0.283493 0.173159 0.0585115 -0.019064 -0.0224811 -0.0267941 -0.0270097 -0.0296086 -0.0284796 -0.0248276 -0.0240588 -0.0191782 -0.0139685 -0.00870255 -0.00296423 -0.623118 -0.649232 -0.659985 -0.653751 -0.629726 -0.58766 -0.531541 -0.456854 -0.369877 -0.273373 -0.166734 -0.0563678 -0.0585115 -0.173159 -0.283493 -0.384606 -0.475972 -0.551638 -0.613417 -0.657251 -0.682704 -0.691226 -0.682105 -0.656075 0.00296423 0.00870255 0.0139685 0.0191782 0.0240588 0.0248276 0.0284796 0.0296086 0.0270097 0.0267941 0.0224811 0.019064 0.0563678 0.166734 0.273373 0.369877 0.456854 0.531541 0.58766 0.629726 0.653751 0.659985 0.649232 0.623118 -0.61643 -0.56376 -0.502973 -0.434127 -0.36166 -0.291388 -0.221604 -0.159642 -0.10839 -0.069142 0.0416056 -0.0932637 0.0137331 0.00675288 0.00183869 -0.00655449 -0.0137851 -0.0194978 -0.0265937 -0.0321971 -0.0382583 -0.0426705 -0.0279237 -0.0521099 0.582572 0.530365 0.467939 0.400576 0.330202 0.257857 0.19077 0.128151 0.077865 0.0419079 -0.0651281 0.0499192 5.62293e-06 -6.32416e-06 -9.66674e-06 -1.30593e-05 -1.48005e-05 -1.52319e-05 -1.44526e-05 -1.26333e-05 -1.00227e-05 -6.83235e-06 -3.29044e-06 3.36264e-07 5.11871e-06 9.05767e-06 7.86829e-06 8.11364e-06 7.72018e-06 7.24098e-06 6.58485e-06 5.79264e-06 4.92471e-06 4.01265e-06 3.05859e-06 2.15126e-06 6.3614e-06 1.44999e-05 1.91708e-05 2.20594e-05 2.35419e-05 2.34839e-05 2.2111e-05 1.96292e-05 1.62538e-05 1.22619e-05 7.92852e-06 3.49859e-06 3.84222e-06 7.00467e-06 9.66006e-06 1.16696e-05 1.29215e-05 1.33708e-05 1.30218e-05 1.18695e-05 1.00451e-05 7.61441e-06 4.75609e-06 1.6148e-06 1.2922e-06 5.07839e-07 -1.3762e-07 -6.92827e-07 -1.05892e-06 -1.30425e-06 -1.4224e-06 -1.34912e-06 -1.19733e-06 -9.37967e-07 -5.92722e-07 -2.0259e-07 -7.66078e-07 -4.64472e-06 -7.93495e-06 -1.04843e-05 -1.21968e-05 -1.30168e-05 -1.28868e-05 -1.19325e-05 -1.01785e-05 -7.75408e-06 -4.86652e-06 -1.6545e-06 -1.6148e-06 -4.7561e-06 -7.61442e-06 -1.00451e-05 -1.18695e-05 -1.30218e-05 -1.33708e-05 -1.29215e-05 -1.16696e-05 -9.66008e-06 -7.00469e-06 -3.84224e-06 2.02586e-07 5.92718e-07 9.37963e-07 1.19733e-06 1.34911e-06 1.4224e-06 1.30425e-06 1.05892e-06 6.92826e-07 1.37619e-07 -5.0784e-07 -1.2922e-06 1.6545e-06 4.86652e-06 7.75408e-06 1.01785e-05 1.19325e-05 1.28868e-05 1.30168e-05 1.21968e-05 1.04843e-05 7.93497e-06 4.64474e-06 7.66095e-07 -3.36284e-07 3.29043e-06 6.83234e-06 1.00226e-05 1.26332e-05 1.44526e-05 1.52319e-05 1.48005e-05 1.30593e-05 9.66674e-06 6.32416e-06 -5.62294e-06 -2.15126e-06 -3.05859e-06 -4.01265e-06 -4.92471e-06 -5.79264e-06 -6.58486e-06 -7.24098e-06 -7.72019e-06 -8.11365e-06 -7.8683e-06 -9.05768e-06 -5.11872e-06 -3.49857e-06 -7.9285e-06 -1.22619e-05 -1.62538e-05 -1.96292e-05 -2.2111e-05 -2.34839e-05 -2.35419e-05 -2.20594e-05 -1.91709e-05 -1.44999e-05 -6.36141e-06 
</DataArray>
<DataArray Name="Stress_13" format="ascii" type="Float64">