<?xml version="1.0"?>
<VTKFile byte_order="LittleEndian" type="UnstructuredGrid" version="0.1">
<UnstructuredGrid>
<Piece NumberOfCells="2042" NumberOfPoints="4205">
<PointData>
</PointData>
<CellData>
<DataArray Name="MaterialId" format="ascii" type="Float64">
1 1 1 1 1 1 1 1 1 1 1 1 1 1 1 1 1 1 1 1 1 1 1 1 1 1 1 1 1 1 1 1 1 1 1 1 1 1 1 1 1 1 1 1 1 1 1 1 1 1 1 1 1 1 1 1 1 1 1 1 1 1 1 1 1 1 1 1 1 1 1 1 1 1 1 1 1 1 1 1 1 1 1 1 1 1 1 1 1 1 1 1 1 1 1 1 1 1 1 1 1 1 1 1 1 1 1 1 1 1 1 1 1 1 1 1 1 1 1 1 1 1 1 1 1 1 1 1 1 1 1 1 1 1 1 1 1 1 1 1 1 1 1 1 1 1 1 1 1 1 1 1 1 1 1 1 1 1 1 1 1 1 1 1 1 1 1 1 1 1 1 1 1 1 1 1 1 1 1 1 1 1 1 1 1 1 1 1 1 1 1 1 1 1 1 1 1 1 1 1 1 1 1 1 1 1 1 1 1 1 1 1 1 1 1 1 1 1 1 1 1 1 1 1 1 1 1 1 1 1 1 1 1 1 1 1 1 1 1 1 1 1 1 1 1 1 1 1 1 1 1 1 1 1 1 1 1 1 1 1 1 1 1 1 1 1 1 1 1 1 1 1 1 1 1 1 1 1 1 1 1 1 1 1 1 1 1 1 1 1 1 1 1 1 1 1 1 1 1 1 1 1 1 1 1 1 1 1 1 1 1 1 1 1 1 1 1 1 1 1 1 1 1 1 1 1 1 1 1 1 1 1 1 1 1 1 1 1 1 1 1 1 1 1 1 1 1 1 1 1 1 1 1 1 1 1 1 1 1 1 1 1 1 1 1 1 1 1 1 1 1 1 1 1 1 1 1 1 1 1 1 1 1 1 1 1 1 1 1 1 1 1 1 1 1 1 1 1 1 1 1 1 1 1 1 1 1 1 1 1 1 1 1 1 1 1 1 1 1 1 1 1 1 1 1 1 1 1 1 1 1 1 1 1 1 1 1 1 1 1 1 1 1 1 1 1 1 1 1 1 1 1 1 1 1 1 1 1 1 1 1 1 1 1 1 1 1 1 1 1 1 1 1 1 1 1 1 1 1 1 1 1 1 1 1 1 1 1 1 1 1 1 1 1 1 1 1 1 1 1 1 1 1 1 1 1 1 1 1 1 1 1 1 1 1 1 1 1 1 1 1 1 1 1 1 1 1 1 1 1 1 1 1 1 1 1 1 1 1 1 1 1 1 1 1 1 1 1 1 1 1 1 1 1 1 1 1 1 1 1 1 1 1 1 1 1 1 1 1 1 1 1 1 1 1 1 1 1 1 1 1 1 1 1 1 1 1 1 1 1 1 1 1 1 1 1 1 1 1 1 1 1 1 1 1 1 1 1 1 1 1 1 1 1 1 1 1 1 1 1 1 1 1 1 1 1 1 1 1 1 1 1 1 1 1 1 1 1 1 1 1 1 1 1 1 1 1 1 1 1 1 1 1 1 1 1 1 1 1 1 1 1 1 1 1 1 1 1 1 1 1 1 1 1 1 1 1 1 1 1 1 1 1 1 1 1 1 1 1 1 1 1 1 1 1 1 1 1 1 1 1 1 1 1 1 1 1 1 1 1 1 1 1 1 1 1 1 1 1 1 1 1 1 1 1 1 1 1 1 1 1 1 1 1 1 1 1 1 1 1 1 1 1 1 1 1 1 1 1 1 1 1 1 1 1 1 1 1 1 1 1 1 1 1 1 1 1 1 1 1 1 1 1 1 1 1 1 1 1 1 1 1 1 1 1 1 1 1 1 1 1 1 1 1 1 1 1 1 1 1 1 1 1 1 1 1 1 1 1 1 1 1 1 1 1 1 1 1 1 1 1 1 1 1 1 1 1 1 1 1 1 1 1 1 1 1 1 1 1 1 1 1 1 1 1 1 1 1 1 1 1 1 1 1 1 1 1 1 1 1 1 1 1 1 1 1 1 1 1 1 1 1 1 1 1 1 1 1 1 1 1 1 1 1 1 1 1 1 1 1 1 1 1 1 1 1 1 1 1 1 1 1 1 1 1 1 1 1 1 1 1 1 1 1 1 1 1 1 1 1 1 1 1 1 1 1 1 1 1 1 1 1 1 1 1 1 1 1 1 1 1 1 1 1 1 1 1 1 1 1 1 1 1 1 1 1 1 1 1 1 1 1 1 1 1 1 1 1 1 1 1 1 1 1 1 1 1 1 1 1 1 1 1 1 1 1 1 1 1 1 1 1 1 1 1 1 1 1 1 1 1 1 1 1 1 1 1 1 1 1 1 1 1 1 1 1 1 1 1 1 1 1 1 1 1 1 1 1 1 1 1 1 1 1 1 1 1 1 1 1 1 1 1 1 1 1 1 1 1 1 1 1 1 1 1 1 1 1 1 1 1 1 1 1 1 1 1 1 1 1 1 1 1 1 1 1 1 1 1 1 1 1 1 1 1 1 1 1 1 1 1 1 1 1 1 1 1 1 1 1 1 1 1 1 1 1 1 1 1 1 1 1 1 1 1 1 1 1 1 1 1 1 1 1 1 1 1 1 1 1 1 1 1 1 1 1 1 1 1 1 1 1 1 1 1 1 1 1 1 1 1 1 1 1 1 1 1 1 1 1 1 1 1 1 1 1 1 1 1 1 1 1 1 1 1 1 1 1 1 1 1 1 1 1 1 1 1 1 1 1 1 1 1 1 1 1 1 1 1 1 1 1 1 1 1 1 1 1 1 1 1 1 1 1 1 1 1 1 1 1 1 1 1 1 1 1 1 1 1 1 1 1 1 1 1 1 1 1 1 1 1 1 1 1 1 1 1 1 1 1 1 1 1 1 1 1 1 1 1 1 1 1 1 1 1 1 1 1 1 1 1 1 1 1 1 1 1 1 1 1 1 1 1 1 1 1 1 1 1 1 1 1 1 1 1 1 1 1 1 1 1 1 1 1 1 1 1 1 1 1 1 1 1 1 1 1 1 1 1 1 1 1 1 1 1 1 1 1 1 1 1 1 1 1 1 1 1 1 1 1 1 1 1 1 1 1 1 1 1 1 1 1 1 1 1 1 1 1 1 1 1 1 1 1 1 1 1 1 1 1 1 1 1 1 1 1 1 1 1 1 1 1 1 1 1 1 1 1 1 1 1 1 1 1 1 1 1 1 1 1 1 1 1 1 1 1 1 1 1 1 1 1 1 1 1 1 1 1 1 1 1 1 1 1 1 1 1 1 1 1 1 1 1 1 1 1 1 1 1 1 1 1 1 1 1 1 1 1 1 1 1 1 1 1 1 1 1 1 1 1 1 1 1 1 1 1 1 1 1 1 1 1 1 1 1 1 1 1 1 1 1 1 1 1 1 1 1 1 1 1 1 1 1 1 1 1 1 1 1 1 1 1 1 1 1 1 1 1 1 1 1 1 1 1 1 1 1 1 1 1 1 1 1 1 1 1 1 1 1 1 1 1 1 1 1 1 1 1 1 1 1 1 1 1 1 1 1 1 1 1 1 1 1 1 1 1 1 1 1 1 1 1 1 1 1 1 1 1 1 1 1 1 1 1 1 1 1 1 1 1 1 1 1 1 1 1 1 1 1 1 1 1 1 1 1 1 1 1 1 1 1 1 1 1 1 1 1 1 1 1 1 1 1 1 1 1 1 1 1 1 1 1 1 1 1 1 1 1 1 1 1 1 1 1 1 1 1 1 1 1 1 1 1 1 1 1 1 1 1 1 1 1 1 1 1 1 1 1 1 1 1 1 1 1 1 1 1 1 1 1 1 1 1 1 1 1 1 1 1 1 1 1 1 1 1 1 1 1 1 1 1 1 1 1 1 1 1 1 1 1 1 1 1 1 1 1 1 1 1 1 1 1 1 1 1 1 1 1 1 1 1 1 1 1 1 1 1 1 1 1 1 1 1 1 1 1 1 1 1 1 1 1 1 1 1 1 1 1 1 1 1 1 1 1 1 1 1 1 1 1 1 1 1 1 1 1 1 1 1 1 1 1 1 1 1 1 1 1 1 1 1 1 1 1 1 1 1 1 1 1 1 1 1 1 1 1 1 1 1 1 1 1 1 1 1 1 1 1 1 1 1 1 1 1 1 1 1 1 1 1 1 1 1 1 1 1 1 1 1 1 1 1 1 1 1 1 1 1 1 1 1 1 1 1 1 1 1 1 1 1 1 1 1 1 1 1 1 1 1 1 1 1 1 1 1 1 1 1 1 1 1 1 1 1 1 1 1 1 1 1 1 1 1 1 1 1 1 1 1 1 1 1 1 1 1 1 1 1 1 1 1 1 1 1 1 1 1 1 1 1 1 1 1 1 1 1 1 1 1 1 1 1 1 1 1 1 1 1 1 1 1 1 1 1 1 1 1 1 1 1 1 1 1 1 1 1 1 1 1 1 1 1 1 1 1 1 1 1 1 1 1 1 1 1 1 1 1 1 1 1 1 1 1 1 1 1 1 1 1 1 1 1 1 1 1 1 1 1 1 1 1 1 1 1 1 1 1 1 1 1 1 1 1 1 1 1 1 1 1 1 1 1 1 1 1 1 1 1 1 1 1 1 1 1 1 1 1 1 1 1 1 1 1 1 1 1 1 1 1 1 1 1 
</DataArray>
<DataArray Name="FiberAngle" format="ascii" type="Float64">
0 0 0 0 0 0 0 0 0 0 0 0 0 0 0 0 0 0 0 0 0 0 0 0 0 0 0 0 0 0 0 0 0 0 0 0 0 0 0 0 0 0 0 0 0 0 0 0 0 0 0 0 0 0 0 0 0 0 0 0 0 0 0 0 0 0 0 0 0 0 0 0 0 0 0 0 0 0 0 0 0 0 0 0 0 0 0 0 0 0 0 0 0 0 0 0 0 0 0 0 0 0 0 0 0 0 0 0 0 0 0 0 0 0 0 0 0 0 0 0 0 0 0 0 0 0 0 0 0 0 0 0 0 0 0 0 0 0 0 0 0 0 0 0 0 0 0 0 0 0 0 0 0 0 0 0 0 0 0 0 0 0 0 0 0 0 0 0 0 0 0 0 0 0 0 0 0 0 0 0 0 0 0 0 0 0 0 0 0 0 0 0 0 0 0 0 0 0 0 0 0 0 0 0 0 0 0 0 0 0 0 0 0 0 0 0 0 0 0 0 0 0 0 0 0 0 0 0 0 0 0 0 0 0 0 0 0 0 0 0 0 0 0 0 0 0 0 0 0 0 0 0 0 0 0 0 0 0 0 0 0 0 0 0 0 0 0 0 0 0 0 0 0 0 0 0 0 0 0 0 0 0 0 0 0 0 0 0 0 0 0 0 0 0 0 0 0 0 0 0 0 0 0 0 0 0 0 0 0 0 0 0 0 0 0 0 0 0 0 0 0 0 0 0 0 0 0 0 0 0 0 0 0 0 0 0 0 0 0 0 0 0 0 0 0 0 0 0 0 0 0 0 0 0 0 0 0 0 0 0 0 0 0 0 0 0 0 0 0 0 0 0 0 0 0 0 0 0 0 0 0 0 0 0 0 0 0 0 0 0 0 0 0 0 0 0 0 0 0 0 0 0 0 0 0 0 0 0 0 0 0 0 0 0 0 0 0 0 0 0 0 0 0 0 0 0 0 0 0 0 0 0 0 0 0 0 0 0 0 0 0 0 0 0 0 0 0 0 0 0 0 0 0 0 0 0 0 0 0 0 0 0 0 0 0 0 0 0 0 0 0 0 0 0 0 0 0 0 0 0 0 0 0 0 0 0 0 0 0 0 0 0 0 0 0 0 0 0 0 0 0 0 0 0 0 0 0 0 0 0 0 0 0 0 0 0 0 0 0 0 0 0 0 0 0 0 0 0 0 0 0 0 0 0 0 0 0 0 0 0 0 0 0 0 0 0 0 0 0 0 0 0 0 0 0 0 0 0 0 0 0 0 0 0 0 0 0 0 0 0 0 0 0 0 0 0 0 0 0 0 0 0 0 0 0 0 0 0 0 0 0 0 0 0 0 0 0 0 0 0 0 0 0 0 0 0 0 0 0 0 0 0 0 0 0 0 0 0 0 0 0 0 0 0 0 0 0 0 0 0 0 0 0 0 0 0 0 0 0 0 0 0 0 0 0 0 0 0 0 0 0 0 0 0 0 0 0 0 0 0 0 0 0 0 0 0 0 0 0 0 0 0 0 0 0 0 0 0 0 0 0 0 0 0 0 0 0 0 0 0 0 0 0 0 0 0 0 0 0 0 0 0 0 0 0 0 0 0 0 0 0 0 0 0 0 0 0 0 0 0 0 0 0 0 0 0 0 0 0 0 0 0 0 0 0 0 0 0 0 0 0 0 0 0 0 0 0 0 0 0 0 0 0 0 0 0 0 0 0 0 0 0 0 0 0 0 0 0 0 0 0 0 0 0 0 0 0 0 0 0 0 0 0 0 0 0 0 0 0 0 0 0 0 0 0 0 0 0 0 0 0 0 0 0 0 0 0 0 0 0 0 0 0 0 0 0 0 0 0 0 0 0 0 0 0 0 0 0 0 0 0 0 0 0 0 0 0 0 0 0 0 0 0 0 0 0 0 0 0 0 0 0 0 0 0 0 0 0 0 0 0 0 0 0 0 0 0 0 0 0 0 0 0 0 0 0 0 0 0 0 0 0 0 0 0 0 0 0 0 0 0 0 0 0 0 0 0 0 0 0 0 0 0 0 0 0 0 0 0 0 0 0 0 0 0 0 0 0 0 0 0 0 0 0 0 0 0 0 0 0 0 0 0 0 0 0 0 0 0 0 0 0 0 0 0 0 0 0 0 0 0 0 0 0 0 0 0 0 0 0 0 0 0 0 0 0 0 0 0 0 0 0 0 0 0 0 0 0 0 0 0 0 0 0 0 0 0 0 0 0 0 0 0 0 0 0 0 0 0 0 0 0 0 0 0 0 0 0 0 0 0 0 0 0 0 0 0 0 0 0 0 0 0 0 0 0 0 0 0 0 0 0 0 0 0 0 0 0 0 0 0 0 0 0 0 0 0 0 0 0 0 0 0 0 0 0 0 0 0 0 0 0 0 0 0 0 0 0 0 0 0 0 0 0 0 0 0 0 0 0 0 0 0 0 0 0 0 0 0 0 0 0 0 0 0 0 0 0 0 0 0 0 0 0 0 0 0 0 0 0 0 0 0 0 0 0 0 0 0 0 0 0 0 0 0 0 0 0 0 0 0 0 0 0 0 0 0 0 0 0 0 0 0 0 0 0 0 0 0 0 0 0 0 0 0 0 0 0 0 0 0 0 0 0 0 0 0 0 0 0 0 0 0 0 0 0 0 0 0 0 0 0 0 0 0 0 0 0 0 0 0 0 0 0 0 0 0 0 0 0 0 0 0 0 0 0 0 0 0 0 0 0 0 0 0 0 0 0 0 0 0 0 0 0 0 0 0 0 0 0 0 0 0 0 0 0 0 0 0 0 0 0 0 0 0 0 0 0 0 0 0 0 0 0 0 0 0 0 0 0 0 0 0 0 0 0 0 0 0 0 0 0 0 0 0 0 0 0 0 0 0 0 0 0 0 0 0 0 0 0 0 0 0 0 0 0 0 0 0 0 0 0 0 0 0 0 0 0 0 0 0 0 0 0 0 0 0 0 0 0 0 0 0 0 0 0 0 0 0 0 0 0 0 0 0 0 0 0 0 0 0 0 0 0 0 0 0 0 0 0 0 0 0 0 0 0 0 0 0 0 0 0 0 0 0 0 0 0 0 0 0 0 0 0 0 0 0 0 0 0 0 0 0 0 0 0 0 0 0 0 0 0 0 0 0 0 0 0 0 0 0 0 0 0 0 0 0 0 0 0 0 0 0 0 0 0 0 0 0 0 0 0 0 0 0 0 0 0 0 0 0 0 0 0 0 0 0 0 0 0 0 0 0 0 0 0 0 0 0 0 0 0 0 0 0 0 0 0 0 0 0 0 0 0 0 0 0 0 0 0 0 0 0 0 0 0 0 0 0 0 0 0 0 0 0 0 0 0 0 0 0 0 0 0 0 0 0 0 0 0 0 0 0 0 0 0 0 0 0 0 0 0 0 0 0 0 0 0 0 0 0 0 0 0 0 0 0 0 0 0 0 0 0 0 0 0 0 0 0 0 0 0 0 0 0 0 0 0 0 0 0 0 0 0 0 0 0 0 0 0 0 0 0 0 0 0 0 0 0 0 0 0 0 0 0 0 0 0 0 0 0 0 0 0 0 0 0 0 0 0 0 0 0 0 0 0 0 0 0 0 0 0 0 0 0 0 0 0 0 0 0 0 0 0 0 0 0 0 0 0 0 0 0 0 0 0 0 0 0 0 0 0 0 0 0 0 0 0 0 0 0 0 0 0 0 0 0 0 0 0 0 0 0 0 0 0 0 0 0 0 0 0 0 0 0 0 0 0 0 0 0 0 0 0 0 0 0 0 0 0 0 0 0 0 0 0 0 0 0 0 0 0 0 0 0 0 0 0 0 0 0 0 0 0 0 0 0 0 0 0 0 0 0 0 0 0 0 0 0 0 0 0 0 0 0 0 0 0 0 0 0 0 0 0 0 0 0 0 0 0 0 0 0 0 0 0 0 0 0 0 0 0 0 0 0 0 0 0 0 0 0 0 0 0 0 0 0 0 0 0 0 0 0 0 0 0 0 0 0 0 0 0 0 0 0 0 0 0 0 0 0 0 0 0 0 0 0 0 0 0 0 0 0 0 0 0 0 0 0 0 0 0 0 0 0 0 0 0 0 0 0 0 0 0 0 0 0 0 0 0 0 0 0 0 0 0 0 0 0 0 0 0 0 0 0 0 0 0 0 0 0 0 0 0 0 0 0 0 0 0 0 0 0 0 0 0 0 0 0 0 0 0 0 0 0 0 0 0 0 0 0 0 0 0 0 0 0 0 0 0 0 0 0 0 0 0 0 0 0 0 0 0 0 0 0 0 0 0 0 0 0 0 0 0 0 0 0 0 0 0 0 0 0 0 0 0 0 0 0 0 0 0 0 0 0 0 0 0 0 0 0 0 0 0 0 0 0 0 0 0 0 0 0 0 0 0 0 0 0 0 0 0 0 0 0 0 0 0 0 0 0 0 0 0 0 0 0 0 0 0 0 0 0 0 0 0 0 0 0 0 0 0 0 0 0 0 0 0 0 0 0 0 0 0 0 0 0 0 0 0 0 0 0 0 0 0 0 0 0 0 0 0 0 0 0 0 0 0 0 0 0 0 0 0 0 0 0 0 0 0 0 0 
</DataArray>
</CellData>
<Points>
<DataArray NumberOfComponents="3" format="ascii" type="Float64">
-0.05 -0.05 0 -0.0483871 -0.05 0 -0.0467742 -0.05 0 -0.0451613 -0.05 0 -0.0435484 -0.05 0 -0.0419355 -0.05 0 -0.0403226 -0.05 0 -0.0387097 -0.05 0 -0.0370968 -0.05 0 -0.0354839 -0.05 0 -0.033871 -0.05 0 -0.0322581 -0.05 0 -0.0306452 -0.05 0 -0.0290323 -0.05 0 -0.0274194 -0.05 0 -0.0258065 -0.05 0 -0.0241935 -0.05 0 -0.0225806 -0.05 0 -0.0209677 -0.05 0 -0.0193548 -0.05 0 -0.0177419 -0.05 0 -0.016129 -0.05 0 -0.0145161 -0.05 0 -0.0129032 -0.05 0 -0.0112903 -0.05 0 -0.00967742 -0.05 0 -0.00806452 -0.05 0 -0.00645161 -0.05 0 -0.00483871 -0.05 0 -0.00322581 -0.05 0 -0.0016129 -0.05 0 0 -0.05 0 0.0016129 -0.05 0 0.00322581 -0.05 0 0.00483871 -0.05 0 0.00645161 -0.05 0 0.00806452 -0.05 0 0.00967742 -0.05 0 0.0112903 -0.05 0 0.0129032 -0.05 0 0.0145161 -0.05 0 0.016129 -0.05 0 0.0177419 -0.05 0 0.0193548 -0.05 0 0.0209677 -0.05 0 0.0225806 -0.05 0 0.0241935 -0.05 0 0.0258065 -0.05 0 0.0274194 -0.05 0 0.0290323 -0.05 0 0.0306452 -0.05 0 0.0322581 -0.05 0 0.033871 -0.05 0 0.0354839 -0.05 0 0.0370968 -0.05 0 0.0387097 -0.05 0 0.0403226 -0.05 0 0.0419355 -0.05 0 0.0435484 -0.05 0 0.0451613 -0.05 0 0.0467742 -0.05 0 0.0483871 -0.05 0 0.05 -0.05 0 0.05 -0.0482759 0 0.05 -0.0465517 0 0.05 -0.0448276 0 0.05 -0.0431034 0 0.05 -0.0413793 0 0.05 -0.0396552 0 0.05 -0.037931 0 0.05 -0.0362069 0 0.05 -0.0344828 0 0.05 -0.0327586 0 0.05 -0.0310345 0 0.05 -0.0293103 0 0.05 -0.0275862 0 0.05 -0.0258621 0 0.05 -0.0241379 0 0.05 -0.0224138 0 0.05 -0.0206897 0 0.05 -0.0189655 0 0.05 -0.0172414 0 0.05 -0.0155172 0 0.05 -0.0137931 0 0.05 -0.012069 0 0.05 -0.0103448 0 0.05 -0.00862069 0 0.05 -0.00689655 0 0.05 -0.00517241 0 0.05 -0.00344828 0 0.05 -0.00172414 0 0.05 0 0 0.05 0.00172414 0 0.05 0.00344828 0 0.05 0.00517241 0 0.05 0.00689655 0 0.05 0.00862069 0 0.05 0.0103448 0 0.05 0.012069 0 0.05 0.0137931 0 0.05 0.0155172 0 0.05 0.0172414 0 0.05 0.0189655 0 0.05 0.0206897 0 0.05 0.0224138 0 0.05 0.0241379 0 0.05 0.0258621 0 0.05 0.0275862 0 0.05 0.0293103 0 0.05 0.0310345 0 0.05 0.0327586 0 0.05 0.0344828 0 0.05 0.0362069 0 0.05 0.037931 0 0.05 0.0396552 0 0.05 0.0413793 0 0.05 0.0431034 0 0.05 0.0448276 0 0.05 0.0465517 0 0.05 0.0482759 0 0.05 0.05 0 0.0481481 0.05 0 0.0462963 0.05 0 0.0444444 0.05 0 0.0425926 0.05 0 0.0407407 0.05 0 0.0388889 0.05 0 0.037037 0.05 0 0.0351852 0.05 0 0.0333333 0.05 0 0.0314815 0.05 0 0.0296296 0.05 0 0.0277778 0.05 0 0.0259259 0.05 0 0.0240741 0.05 0 0.0222222 0.05 0 0.0203704 0.05 0 0.0185185 0.05 0 0.0166667 0.05 0 0.0148148 0.05 0 0.012963 0.05 0 0.0111111 0.05 0 0.00925926 0.05 0 0.00740741 0.05 0 0.00555556 0.05 0 0.0037037 0.05 0 0.00185185 0.05 0 0 0.05 0 -0.00185185 0.05 0 -0.0037037 0.05 0 -0.00555556 0.05 0 -0.00740741 0.05 0 -0.00925926 0.05 0 -0.0111111 0.05 0 -0.012963 0.05 0 -0.0148148 0.05 0 -0.0166667 0.05 0 -0.0185185 0.05 0 -0.0203704 0.05 0 -0.0222222 0.05 0 -0.0240741 0.05 0 -0.0259259 0.05 0 -0.0277778 0.05 0 -0.0296296 0.05 0 -0.0314815 0.05 0 -0.0333333 0.05 0 -0.0351852 0.05 0 -0.037037 0.05 0 -0.0388889 0.05 0 -0.0407407 0.05 0 -0.0425926 0.05 0 -0.0444444 0.05 0 -0.0462963 0.05 0 -0.0481481 0.05 0 -0.05 0.05 0 -0.05 0.0484848 0 -0.05 0.0469697 0 -0.05 0.0454545 0 -0.05 0.0439394 0 -0.05 0.0424242 0 -0.05 0.0409091 0 -0.05 0.0393939 0 -0.05 0.0378788 0 -0.05 0.0363636 0 -0.05 0.0348485 0 -0.05 0.0333333 0 -0.05 0.0318182 0 -0.05 0.030303 0 -0.05 0.0287879 0 -0.05 0.0272727 0 -0.05 0.0257576 0 -0.05 0.0242424 0 -0.05 0.0227273 0 -0.05 0.0212121 0 -0.05 0.019697 0 -0.05 0.0181818 0 -0.05 0.0166667 0 -0.05 0.0151515 0 -0.05 0.0136364 0 -0.05 0.0121212 0 -0.05 0.0106061 0 -0.05 0.00909091 0 -0.05 0.00757576 0 -0.05 0.00606061 0 -0.05 0.00454545 0 -0.05 0.0030303 0 -0.05 0.00151515 0 -0.05 0 0 -0.05 -0.00151515 0 -0.05 -0.0030303 0 -0.05 -0.00454545 0 -0.05 -0.00606061 0 -0.05 -0.00757576 0 -0.05 -0.00909091 0 -0.05 -0.0106061 0 -0.05 -0.0121212 0 -0.05 -0.0136364 0 -0.05 -0.0151515 0 -0.05 -0.0166667 0 -0.05 -0.0181818 0 -0.05 -0.019697 0 -0.05 -0.0212121 0 -0.05 -0.0227273 0 -0.05 -0.0242424 0 -0.05 -0.0257576 0 -0.05 -0.0272727 0 -0.05 -0.0287879 0 -0.05 -0.030303 0 -0.05 -0.0318182 0 -0.05 -0.0333333 0 -0.05 -0.0348485 0 -0.05 -0.0363636 0 -0.05 -0.0378788 0 -0.05 -0.0393939 0 -0.05 -0.0409091 0 -0.05 -0.0424242 0 -0.05 -0.0439394 0 -0.05 -0.0454545 0 -0.05 -0.0469697 0 -0.05 -0.0484848 0 0.047773 -0.0476364 0 0.0472736 -0.0488182 0 0.0488865 -0.0470941 0 0.0488865 -0.0488182 0 0.0474524 0.0476176 0 0.0487262 0.0470846 0 0.0468743 0.0488088 0 0.0487262 0.0488088 0 -0.0474451 0.0478693 0 -0.0468707 0.0489347 0 -0.0487226 0.0474195 0 -0.0487226 0.0489347 0 -0.0478461 -0.0479378 0 -0.0489231 -0.0474537 0 -0.0473102 -0.0489689 0 -0.0489231 -0.0489689 0 -0.0468401 0.0451831 0 -0.0471426 0.0465262 0 -0.04842 0.0445612 0 -0.04842 0.0460764 0 0.0467948 0.0446039 0 0.0483974 0.0438537 0 0.0471236 0.0461107 0 0.0483974 0.0455778 0 0.0449591 -0.0470329 0 0.0442538 -0.0485165 0 0.0463661 -0.0473347 0 0.0458667 -0.0485165 0 -0.0473684 -0.0452991 0 -0.0486842 -0.0446192 0 -0.0476072 -0.0466184 0 -0.0486842 -0.0461344 0 -0.0466945 0.0423491 0 -0.0467673 0.0437661 0 -0.0483472 0.0416291 0 -0.0483472 0.0431443 0 -0.0467996 0.0393771 0 -0.046747 0.0408631 0 -0.0483998 0.038628 0 -0.0483998 0.0401431 0 -0.0470222 0.0362618 0 -0.0469109 0.0378195 0 -0.0485111 0.0355552 0 -0.0485111 0.0370703 0 -0.0471472 0.0331211 0 -0.0470847 0.0346915 0 -0.0485736 0.0324696 0 -0.0485736 0.0339848 0 -0.0471919 0.0300352 0 -0.0471821 0.0315534 0 -0.0486085 0.0293868 0 -0.0486085 0.0309019 0 -0.0472168 0.0269557 0 -0.0472169 0.0284707 0 -0.0486084 0.0263566 0 -0.0486084 0.0278718 0 -0.0472167 0.0239255 0 -0.0472167 0.0254406 0 -0.0486083 0.0233264 0 -0.0486083 0.0248415 0 -0.0472167 0.0208952 0 -0.0472167 0.0224103 0 -0.0486083 0.0202961 0 -0.0486083 0.0218112 0 -0.0472167 0.0178649 0 -0.0472167 0.0193801 0 -0.0486083 0.0172658 0 -0.0486083 0.0187809 0 -0.0472167 0.0148346 0 -0.0472167 0.0163498 0 -0.0486083 0.0142355 0 -0.0486083 0.0157506 0 -0.0472167 0.0118043 0 -0.0472167 0.0133195 0 -0.0486083 0.0112052 0 -0.0486083 0.0127203 0 -0.0472167 0.008774 0 -0.0472167 0.0102892 0 -0.0486083 0.00817488 0 -0.0486083 0.00969003 0 -0.0472167 0.0057437 0 -0.0472167 0.00725885 0 -0.0486083 0.00514458 0 -0.0486083 0.00665973 0 -0.0472679 0.00277228 0 -0.0472423 0.00425799 0 -0.048634 0.00214372 0 -0.048634 0.00365887 0 -0.0473184 -0.000225989 0 -0.0472932 0.00127314 0 -0.0486592 -0.00087057 0 -0.0486592 0.000644582 0 -0.047365 -0.00323803 0 -0.0473417 -0.00173201 0 -0.0486825 -0.00389174 0 -0.0486825 -0.00237659 0 -0.0451134 -0.0474053 0 -0.0464798 -0.0476715 0 -0.0443309 -0.0487027 0 -0.0459438 -0.0487027 0 0.0471732 -0.0446441 0 0.0474731 -0.0461403 0 0.0485866 -0.0438738 0 0.0485866 -0.0455979 0 0.0442349 0.0469813 0 0.0458436 0.0472994 0 0.0434137 0.0484907 0 0.0452656 0.0484907 0 0.046666 0.0414214 0 0.048333 0.0405383 0 0.0467304 0.0430126 0 0.048333 0.0422624 0 0.0420026 -0.0469589 0 0.0411626 -0.0484795 0 0.0434809 -0.0469959 0 0.0427755 -0.0484795 0 -0.0471347 -0.0424662 0 -0.0485673 -0.0416876 0 -0.0472515 -0.0438826 0 -0.0485673 -0.0432028 0 -0.0473973 -0.00626145 0 -0.0473811 -0.00474974 0 -0.0486986 -0.0069186 0 -0.0486986 -0.00540345 0 0.0468149 0.0379405 0 0.0484075 0.0370737 0 0.0467405 0.0396809 0 0.0484075 0.0387978 0 0.0387413 -0.0471415 0 0.037919 -0.0485707 0 0.0403719 -0.0470502 0 0.0395319 -0.0485707 0 -0.047081 -0.0395651 0 -0.0485405 -0.038722 0 -0.0471078 -0.0410157 0 -0.0485405 -0.0402371 0 0.0468062 0.0345004 0 0.0484031 0.0336295 0 0.0468106 0.0362204 0 0.0484031 0.0353536 0 0.0468467 0.0310517 0 0.0484233 0.030181 0 0.0468264 0.032776 0 0.0484233 0.0319052 0 -0.047402 -0.00926107 0 -0.0473996 -0.00776126 0 -0.048701 -0.00993357 0 -0.048701 -0.00841841 0 0.046905 0.0275701 0 0.0484525 0.0267161 0 0.0468758 0.0293109 0 0.0484525 0.0284402 0 0.0469307 0.0240945 0 0.0484654 0.0232541 0 0.0469179 0.0258323 0 0.0484654 0.0249783 0 0.0469367 0.0206344 0 0.0484684 0.0198 0 0.0469337 0.0223644 0 0.0484684 0.0215241 0 0.0469375 0.0171803 0 0.0484688 0.0163488 0 0.0469371 0.0189073 0 0.0484688 0.0180729 0 0.0469375 0.0137359 0 0.0484688 0.0129024 0 0.0469375 0.0154581 0 0.0484688 0.0146266 0 0.0469402 0.0102932 0 0.0484701 0.00945696 0 0.0469388 0.0120145 0 0.0484701 0.0111811 0 0.0469541 0.00685778 0 0.0484771 0.0060151 0 0.0469472 0.00857551 0 0.0484771 0.00773923 0 0.0469875 0.00342307 0 0.0484938 0.0025736 0 0.0469708 0.00514042 0 0.0484938 0.00429774 0 0.0470327 -2.1343e-05 0 0.0485164 -0.00087274 0 0.0470101 0.00170086 0 0.0485164 0.000851398 0 0.0470671 -0.00347612 0 0.0485336 -0.00432427 0 0.0470499 -0.00174873 0 0.0485336 -0.00260013 0 0.0354989 -0.0471464 0 0.034685 -0.0485732 0 0.0371201 -0.0471439 0 0.0362979 -0.0485732 0 0.0322619 -0.04716 0 0.0314536 -0.04858 0 0.0338804 -0.0471532 0 0.0330665 -0.04858 0 0.0290364 -0.0471674 0 0.0282279 -0.0485837 0 0.0306492 -0.0471637 0 0.0298408 -0.0485837 0 -0.047166 -0.0365774 0 -0.048583 -0.0357129 0 -0.0471235 -0.0380713 0 -0.048583 -0.0372281 0 0.0258107 -0.0471787 0 0.0250021 -0.0485893 0 0.0274235 -0.047173 0 0.026615 -0.0485893 0 0.0225809 -0.0471871 0 0.0217743 -0.0485936 0 0.0241958 -0.0471829 0 0.0233872 -0.0485936 0 0.0193486 -0.0471855 0 0.0185453 -0.0485927 0 0.0209648 -0.0471863 0 0.0201582 -0.0485927 0 0.0161147 -0.0471732 0 0.0153154 -0.0485866 0 0.0177316 -0.0471793 0 0.0169283 -0.0485866 0 0.0128818 -0.0471699 0 0.0120864 -0.0485856 0 0.0144982 -0.0471716 0 0.0136993 -0.0485856 0 0.00964569 -0.0471377 0 0.0088551 -0.0485688 0 0.0112637 -0.0471538 0 0.010468 -0.0485688 0 0.00642655 -0.047138 0 0.00563263 -0.048569 0 0.00803612 -0.0471378 0 0.00724553 -0.048569 0 0.00320514 -0.0471651 0 0.00240902 -0.0485826 0 0.00481584 -0.0471515 0 0.00402193 -0.0485826 0 -2.70098e-05 -0.0472043 0 -0.000819956 -0.0486021 0 0.00158906 -0.0471847 0 0.000792947 -0.0486021 0 -0.00327617 -0.0472328 0 -0.00405744 -0.0486164 0 -0.00165159 -0.0472186 0 -0.00244453 -0.0486164 0 -0.0474021 -0.0122654 0 -0.0474021 -0.0107632 0 -0.0487011 -0.0129509 0 -0.0487011 -0.0114357 0 -0.0473166 -0.0334777 0 -0.0486583 -0.032648 0 -0.0472413 -0.0350276 0 -0.0486583 -0.0341631 0 -0.0474024 -0.015274 0 -0.0474022 -0.0137697 0 -0.0487012 -0.0159703 0 -0.0487012 -0.0144552 0 -0.0473831 -0.0303882 0 -0.0486916 -0.029588 0 -0.0473499 -0.031933 0 -0.0486916 -0.0311032 0 -0.0474061 -0.0182874 0 -0.0474042 -0.0167807 0 -0.048703 -0.0189922 0 -0.048703 -0.017477 0 -0.0474023 -0.027338 0 -0.0487012 -0.0265478 0 -0.0473927 -0.0288631 0 -0.0487012 -0.0280629 0 -0.047408 -0.0212984 0 -0.047407 -0.0197929 0 -0.048704 -0.0220128 0 -0.048704 -0.0204977 0 -0.0474068 -0.0243128 0 -0.0487034 -0.02352 0 -0.0474045 -0.0258254 0 -0.0487034 -0.0250352 0 -0.0474074 -0.0228056 0 -0.0442192 0.04726 0 -0.0434059 0.04863 0 -0.0458321 0.0475647 0 -0.0452577 0.04863 0 -0.0421967 -0.0470675 0 -0.0436551 -0.0472364 0 -0.0428726 -0.0485338 0 -0.0412596 -0.0485338 0 0.0469927 -0.0414714 0 0.0470829 -0.0430578 0 0.0484963 -0.0422874 0 0.0484963 -0.0405633 0 0.0408363 0.0468165 0 0.0425356 0.0468989 0 0.0417144 0.0484082 0 0.0398626 0.0484082 0 -0.00650297 -0.0472403 0 -0.00728375 -0.0486202 0 -0.00567084 -0.0486202 0 -0.00488957 -0.0472366 0 -0.00972995 -0.0472354 0 -0.0105101 -0.0486177 0 -0.00889723 -0.0486177 0 -0.00811646 -0.0472379 0 -0.0129499 -0.0472165 0 -0.013733 -0.0486083 0 -0.0121201 -0.0486083 0 -0.0113399 -0.047226 0 -0.0161777 -0.0472175 0 -0.0169598 -0.0486087 0 -0.0153469 -0.0486087 0 -0.0145638 -0.047217 0 -0.0193966 -0.0472333 0 -0.0201822 -0.0486166 0 -0.0185693 -0.0486166 0 -0.0177871 -0.0472254 0 -0.0226185 -0.0472521 0 -0.023406 -0.0486261 0 -0.0217931 -0.0486261 0 -0.0210075 -0.0472427 0 -0.0259073 -0.0472413 0 -0.0266633 -0.0486207 0 -0.0250504 -0.0486207 0 -0.0242629 -0.0472467 0 -0.0292386 -0.0472046 0 -0.0299419 -0.0486023 0 -0.028329 -0.0486023 0 -0.027573 -0.047223 0 -0.0326158 -0.047111 0 -0.0332434 -0.0485555 0 -0.0316305 -0.0485555 0 -0.0309272 -0.0471578 0 -0.035974 -0.0469626 0 -0.0365354 -0.0484813 0 -0.0349225 -0.0484813 0 -0.0342949 -0.0470368 0 -0.0391665 -0.0469228 0 -0.0397446 -0.0484614 0 -0.0381317 -0.0484614 0 -0.0375703 -0.0469427 0 -0.0406816 -0.0469952 0 0.0470758 -0.00692907 0 0.0485379 -0.00777488 0 0.0485379 -0.00605074 0 0.0470715 -0.00520259 0 0.0470676 -0.0103687 0 0.0485338 -0.0112188 0 0.0485338 -0.00949467 0 0.0470717 -0.00864886 0 0.0470884 -0.0137931 0 0.0485442 -0.0146552 0 0.0485442 -0.012931 0 0.047078 -0.0120809 0 0.0470884 -0.0172414 0 0.0485442 -0.0181034 0 0.0485442 -0.0163793 0 0.0470884 -0.0155172 0 0.0470884 -0.0206897 0 0.0485442 -0.0215517 0 0.0485442 -0.0198276 0 0.0470884 -0.0189655 0 0.0470884 -0.0241379 0 0.0485442 -0.025 0 0.0485442 -0.0232759 0 0.0470884 -0.0224138 0 0.0470884 -0.0275862 0 0.0485442 -0.0284483 0 0.0485442 -0.0267241 0 0.0470884 -0.0258621 0 0.0470884 -0.0310345 0 0.0485442 -0.0318966 0 0.0485442 -0.0301724 0 0.0470884 -0.0293103 0 0.0470519 -0.0345603 0 0.048526 -0.0353836 0 0.048526 -0.0336594 0 0.0470702 -0.0327974 0 0.0470709 -0.0380141 0 0.0485355 -0.0388346 0 0.0485355 -0.0371105 0 0.0470614 -0.0362872 0 0.0470318 -0.0397427 0 0.0371215 0.0468857 0 0.0389789 0.0468511 0 0.0380052 0.0484429 0 0.0361533 0.0484429 0 0.0334486 0.0468035 0 0.035285 0.0468446 0 0.0343169 0.0484018 0 0.0324651 0.0484018 0 0.0297648 0.0467648 0 0.0316067 0.0467842 0 0.0306231 0.0483824 0 0.0287713 0.0483824 0 0.0260515 0.0467472 0 0.0279081 0.046756 0 0.0269146 0.0483736 0 0.0250628 0.0483736 0 0.0223505 0.046731 0 0.024201 0.0467391 0 0.0232116 0.0483649 0 0.0213598 0.0483649 0 0.0186366 0.0467401 0 0.0204936 0.0467356 0 0.0195035 0.0483701 0 0.0176516 0.0483701 0 0.0149342 0.0467282 0 0.0167854 0.0467342 0 0.0158004 0.0483641 0 0.0139486 0.0483641 0 0.0112219 0.0467651 0 0.0130781 0.0467466 0 0.0120924 0.0483825 0 0.0102406 0.0483825 0 0.00753919 0.0467756 0 0.00938055 0.0467703 0 0.00839922 0.0483878 0 0.00654737 0.0483878 0 0.00385553 0.046808 0 0.00569736 0.0467918 0 0.00470554 0.048404 0 0.00285369 0.048404 0 0.000179141 0.0468479 0 0.00201734 0.0468279 0 0.0010155 0.0484239 0 -0.000836355 0.0484239 0 -0.00349673 0.0468895 0 -0.0016588 0.0468687 0 -0.00267429 0.0484447 0 -0.00452614 0.0484447 0 -0.00718521 0.0469134 0 -0.00534097 0.0469014 0 -0.00637038 0.0484567 0 -0.00822223 0.0484567 0 -0.010891 0.0468957 0 -0.00903809 0.0469045 0 -0.0100751 0.0484478 0 -0.011927 0.0484478 0 -0.0146045 0.0468285 0 -0.0127477 0.0468621 0 -0.0137837 0.0484143 0 -0.0156356 0.0484143 0 -0.0183096 0.0467441 0 -0.016457 0.0467863 0 -0.0174881 0.048372 0 -0.01934 0.048372 0 -0.0220172 0.0466796 0 -0.0201634 0.0467119 0 -0.0211938 0.0483398 0 -0.0230456 0.0483398 0 -0.0257533 0.0466567 0 -0.0238852 0.0466682 0 -0.0249137 0.0483283 0 -0.0267655 0.0483283 0 -0.0295347 0.0467017 0 -0.027644 0.0466792 0 -0.0286562 0.0483509 0 -0.0305081 0.0483509 0 -0.0333918 0.0467321 0 -0.0314632 0.0467169 0 -0.0324366 0.0483661 0 -0.0342885 0.0483661 0 -0.0372409 0.0466295 0 -0.0353163 0.0466808 0 -0.036213 0.0483147 0 -0.0380649 0.0483147 0 -0.0407806 0.0467832 0 -0.0390107 0.0467063 0 -0.0398347 0.0483916 0 -0.0416866 0.0483916 0 -0.0424999 0.0470216 0 -0.0462409 -0.0463522 0 0.0460662 -0.0458385 0 0.0455149 0.0457926 0 -0.0455296 0.0462216 0 -0.0433502 0.0441939 0 -0.0437847 0.0457269 0 -0.0450951 0.0446885 0 -0.0450223 0.0432715 0 -0.0420654 0.0454885 0 -0.0433383 0.0411542 0 -0.0433622 0.0426542 0 -0.0450343 0.0417319 0 -0.0450868 0.0402459 0 -0.043885 0.0378486 0 -0.0436116 0.0395014 0 -0.045471 0.037032 0 -0.0453597 0.0385897 0 -0.0442496 0.0345256 0 -0.0440847 0.0361639 0 -0.0456984 0.0338234 0 -0.0456359 0.0353937 0 -0.0443755 0.0313489 0 -0.0443125 0.0329373 0 -0.0457962 0.0306673 0 -0.0457613 0.032235 0 -0.0444096 0.0282511 0 -0.0443925 0.0298 0 -0.0458132 0.0276034 0 -0.0458133 0.0291184 0 -0.0444183 0.0251961 0 -0.0444139 0.0267236 0 -0.0458175 0.0245608 0 -0.0458175 0.0260759 0 -0.044419 0.0221597 0 -0.0444186 0.0236779 0 -0.0458178 0.0215275 0 -0.0458178 0.0230426 0 -0.0444189 0.0191285 0 -0.0444189 0.0206441 0 -0.0458178 0.0184967 0 -0.0458178 0.0200118 0 -0.0444189 0.0160983 0 -0.0444189 0.0176134 0 -0.0458178 0.0154665 0 -0.0458178 0.0169816 0 -0.0444196 0.0130699 0 -0.0444192 0.0145841 0 -0.0458181 0.0124371 0 -0.0458181 0.0139522 0 -0.0444244 0.0100464 0 -0.044422 0.0115581 0 -0.0458205 0.00941021 0 -0.0458205 0.0109254 0 -0.0444417 0.0070321 0 -0.0444331 0.00853925 0 -0.0458292 0.0063879 0 -0.0458292 0.00790305 0 -0.0444873 0.00402729 0 -0.0444645 0.00552969 0 -0.0458776 0.00339978 0 -0.045852 0.00488549 0 -0.044582 0.00103618 0 -0.0445346 0.00253173 0 -0.0459502 0.000405097 0 -0.0459249 0.00190423 0 -0.0446813 -0.00195595 0 -0.0446316 -0.000459883 0 -0.0459999 -0.00109097 0 -0.0460232 -0.00259699 0 -0.0447526 -0.00494679 0 -0.044717 -0.00345137 0 -0.0460749 -0.00560412 0 -0.0460588 -0.00409241 0 -0.0447801 -0.00793178 0 -0.0447664 -0.00643928 0 -0.0460911 -0.00859642 0 -0.0460887 -0.00709661 0 -0.0447893 -0.0109181 0 -0.0447847 -0.00942494 0 -0.0460956 -0.0100896 0 -0.0460957 -0.0115917 0 -0.0447956 -0.013906 0 -0.0447924 -0.012412 0 -0.0460988 -0.0130857 0 -0.046099 -0.01459 0 -0.0447944 -0.0168978 0 -0.044795 -0.0154019 0 -0.0460984 -0.0160859 0 -0.0461002 -0.0175926 0 -0.0447954 -0.0198946 0 -0.0447949 -0.0183962 0 -0.0461007 -0.019091 0 -0.0461017 -0.0205965 0 -0.0448059 -0.0228951 0 -0.0448006 -0.0213949 0 -0.0461069 -0.0220967 0 -0.0461063 -0.0236039 0 -0.0448013 -0.025891 0 -0.0448036 -0.024393 0 -0.0461018 -0.0266145 0 -0.046104 -0.0251019 0 -0.0447986 -0.0289222 0 -0.0447999 -0.0274066 0 -0.0461004 -0.0281301 0 -0.0460909 -0.0296552 0 -0.0447408 -0.0320279 0 -0.0447697 -0.0304751 0 -0.046062 -0.0312081 0 -0.0460287 -0.0327528 0 -0.0445446 -0.0352289 0 -0.0446427 -0.0336284 0 -0.0459306 -0.0343533 0 -0.0458553 -0.0359031 0 -0.0440842 -0.0385057 0 -0.0443347 -0.0368497 0 -0.0456455 -0.0375239 0 -0.0456029 -0.0390178 0 -0.0440503 -0.0414652 0 -0.0440876 -0.0399678 0 -0.0455656 -0.0405152 0 -0.0455925 -0.0419657 0 -0.0444581 -0.0444747 0 -0.0442542 -0.0429699 0 -0.0457964 -0.0434704 0 -0.0459132 -0.0448869 0 -0.0447858 -0.04594 0 -0.0433274 -0.0457711 0 -0.0396352 0.0433034 0 -0.0402262 0.0450254 0 -0.041511 0.0437307 0 -0.0414868 0.0422288 0 -0.0384563 0.0449485 0 -0.0406183 0.0395716 0 -0.0401268 0.0414375 0 -0.0419783 0.0403629 0 -0.0422516 0.0387101 0 -0.0412431 0.0360743 0 -0.0409307 0.0378229 0 -0.0427668 0.035274 0 -0.0425641 0.0369614 0 -0.0414776 0.0328051 0 -0.0413604 0.0344397 0 -0.0429386 0.0320549 0 -0.0428756 0.0336433 0 -0.0415952 0.0296097 0 -0.0415484 0.0311853 0 -0.0430024 0.0289304 0 -0.0429853 0.0304793 0 -0.04162 0.0265246 0 -0.0416076 0.0280672 0 -0.0430192 0.0258604 0 -0.0430148 0.0273879 0 -0.0416197 0.023479 0 -0.0416199 0.0250018 0 -0.0430193 0.0228194 0 -0.043019 0.0243376 0 -0.041619 0.0204458 0 -0.0416194 0.0219624 0 -0.043019 0.0197871 0 -0.043019 0.0213027 0 -0.0416189 0.0174152 0 -0.041619 0.0189305 0 -0.0430189 0.0167568 0 -0.0430189 0.0182718 0 -0.0416193 0.0143859 0 -0.0416191 0.0159006 0 -0.0430194 0.0137279 0 -0.0430191 0.0152421 0 -0.0416233 0.0113605 0 -0.0416213 0.0128732 0 -0.0430238 0.0107034 0 -0.0430214 0.0122152 0 -0.0416423 0.00834358 0 -0.0416328 0.00985202 0 -0.043042 0.00768784 0 -0.0430333 0.00919499 0 -0.0416983 0.00533748 0 -0.0416703 0.00684053 0 -0.0430928 0.00468238 0 -0.04307 0.00618479 0 -0.0418082 0.00233953 0 -0.0417533 0.00383851 0 -0.0431951 0.00168786 0 -0.0431478 0.00318341 0 -0.0419509 -0.000648482 0 -0.0418796 0.000845526 0 -0.0432664 0.000193851 0 -0.0433161 -0.00130222 0 -0.0420703 -0.00362627 0 -0.0420106 -0.00213737 0 -0.0434115 -0.00428653 0 -0.0433758 -0.00279111 0 -0.0421335 -0.00659439 0 -0.0421019 -0.00511033 0 -0.0434568 -0.00726308 0 -0.043443 -0.00577059 0 -0.0421608 -0.00956793 0 -0.0421471 -0.00808116 0 -0.043475 -0.010243 0 -0.0434705 -0.00874985 0 -0.0421625 -0.0125279 0 -0.0421616 -0.0110479 0 -0.0434759 -0.011723 0 -0.043479 -0.013217 0 -0.0421639 -0.015502 0 -0.0421632 -0.014015 0 -0.0434792 -0.0161999 0 -0.0434797 -0.014704 0 -0.0421681 -0.0184899 0 -0.042166 -0.016996 0 -0.0434813 -0.0176939 0 -0.0434818 -0.0191923 0 -0.0421681 -0.0214836 0 -0.0421681 -0.0199868 0 -0.0434817 -0.0206891 0 -0.043487 -0.0221894 0 -0.0421598 -0.0244728 0 -0.042164 -0.0229782 0 -0.0434829 -0.0236839 0 -0.0434806 -0.0251819 0 -0.0421624 -0.0274595 0 -0.0421611 -0.0259661 0 -0.0434819 -0.0266752 0 -0.0434805 -0.0281908 0 -0.0421699 -0.030518 0 -0.0421833 -0.0289598 0 -0.0435014 -0.0296911 0 -0.0434725 -0.031244 0 -0.0420713 -0.0337052 0 -0.0421377 -0.0320826 0 -0.043406 -0.0328666 0 -0.0433079 -0.0344671 0 -0.0415876 -0.0371259 0 -0.0418515 -0.0353997 0 -0.0430881 -0.0361615 0 -0.0428359 -0.0378158 0 -0.0407458 -0.0406563 0 -0.0411888 -0.0388752 0 -0.0424353 -0.0395634 0 -0.0423981 -0.0410608 0 -0.0414254 -0.0438982 0 -0.0410856 -0.0422772 0 -0.0427379 -0.0426817 0 -0.0429418 -0.0441864 0 -0.0418111 -0.0454828 0 -0.040296 -0.0454105 0 -0.0382443 -0.0438613 0 -0.0398349 -0.0438797 0 -0.0387054 -0.045392 0 -0.0371092 -0.0454119 0 -0.0394951 -0.0422588 0 -0.034698 -0.0442152 0 -0.0364711 -0.0440382 0 -0.035336 -0.0455889 0 -0.0336569 -0.0456631 0 -0.0311367 -0.0444316 0 -0.0329173 -0.0443234 0 -0.0301877 -0.0458181 0 -0.0318762 -0.0457713 0 -0.0276722 -0.0445041 0 -0.0294045 -0.0444679 0 -0.0284554 -0.0458543 0 -0.0267898 -0.0458727 0 -0.0243397 -0.0445012 0 -0.0259804 -0.0445148 0 -0.0250979 -0.0458834 0 -0.0234535 -0.0458888 0 -0.021066 -0.0444804 0 -0.0226773 -0