<?xml version="1.0"?>
<VTKFile byte_order="LittleEndian" type="UnstructuredGrid" version="0.1">
<UnstructuredGrid>
<Piece NumberOfCells="2042" NumberOfPoints="4205">
<PointData>
<DataArray Name="Warping_X" format="ascii" type="Float64">
-0.586941 -0.567586 -0.548231 -0.528876 -0.509522 -0.490167 -0.470812 -0.451457 -0.432102 -0.412748 -0.393393 -0.374038 -0.354683 -0.335328 -0.315973 -0.296618 -0.277264 -0.257909 -0.238554 -0.219199 -0.199844 -0.180489 -0.161135 -0.14178 -0.122425 -0.10307 -0.0837153 -0.0643604 -0.0450056 -0.0256508 -0.00629592 0.0130589 0.0324138 0.0517686 0.0711234 0.0904783 0.109833 0.129188 0.148543 0.167898 0.187252 0.206607 0.225962 0.245317 0.264672 0.284027 0.303381 0.322736 0.342091 0.361446 0.380801 0.400156 0.419511 0.438865 0.45822 0.477575 0.49693 0.516285 0.53564 0.554994 0.574349 0.593704 0.613059 0.591894 0.57073 0.549566 0.528401 0.507237 0.486072 0.464908 0.443743 0.422579 0.401414 0.38025 0.359086 0.337921 0.316757 0.295592 0.274428 0.253263 0.232099 0.210934 0.18977 0.168606 0.147441 0.126277 0.105112 0.0839477 0.0627833 0.0416188 0.0204544 -0.000710067 -0.0218745 -0.043039 -0.0642034 -0.0853679 -0.106532 -0.127697 -0.148861 -0.170026 -0.19119 -0.212355 -0.233519 -0.254683 -0.275848 -0.297012 -0.318177 -0.339341 -0.360506 -0.38167 -0.402835 -0.423999 -0.445163 -0.466328 -0.487492 -0.508657 -0.529821 -0.550986 -0.57215 -0.593315 -0.614479 -0.592257 -0.570035 -0.547812 -0.52559 -0.503368 -0.481146 -0.458923 -0.436701 -0.414479 -0.392257 -0.370035 -0.347812 -0.32559 -0.303368 -0.281146 -0.258923 -0.236701 -0.214479 -0.192257 -0.170035 -0.147812 -0.12559 -0.103368 -0.0811457 -0.0589235 -0.0367013 -0.0144791 0.00774317 0.0299654 0.0521876 0.0744098 0.0966321 0.118854 0.141077 0.163299 0.185521 0.207743 0.229965 0.252188 0.27441 0.296632 0.318854 0.341077 0.363299 0.385521 0.407743 0.429965 0.452187 0.47441 0.496632 0.518854 0.541076 0.563299 0.585521 0.567756 0.549992 0.532227 0.514463 0.496698 0.478933 0.461169 0.443404 0.42564 0.407875 0.390111 0.372346 0.354581 0.336817 0.319052 0.301288 0.283523 0.265759 0.247994 0.230229 0.212465 0.1947 0.176936 0.159171 0.141407 0.123642 0.105877 0.0881128 0.0703482 0.0525837 0.0348191 0.0170545 -0.00071006 -0.0184746 -0.0362392 -0.0540038 -0.0717684 -0.0895329 -0.107298 -0.125062 -0.142827 -0.160591 -0.178356 -0.19612 -0.213885 -0.23165 -0.249414 -0.267179 -0.284943 -0.302708 -0.320472 -0.338237 -0.356002 -0.373766 -0.391531 -0.409295 -0.42706 -0.444825 -0.462589 -0.480354 -0.498118 -0.515883 -0.533647 -0.551412 -0.569176 0.558584 0.566608 0.564802 0.585506 -0.556119 -0.564297 -0.563242 -0.584935 0.531188 0.536279 0.540728 0.558028 -0.537982 -0.544822 -0.543239 -0.562195 0.494778 0.512885 0.504856 0.522046 -0.513929 -0.522164 -0.534905 -0.542665 0.519736 0.527939 0.539058 0.54672 -0.503214 -0.509763 -0.520522 -0.527049 0.462221 0.478475 0.470863 0.488026 0.430725 0.446492 0.437353 0.454535 0.398531 0.41467 0.403456 0.420679 0.364945 0.381761 0.368868 0.386114 0.331199 0.347902 0.334023 0.351282 0.297329 0.31408 0.299509 0.316767 0.263825 0.280577 0.264992 0.28225 0.23032 0.247073 0.230475 0.247734 0.196816 0.213568 0.195958 0.213217 0.163311 0.180063 0.161441 0.1787 0.129806 0.146558 0.126924 0.144182 0.0963008 0.113053 0.0924069 0.109665 0.0627959 0.0795483 0.0578899 0.0751484 0.0299761 0.0463951 0.0237214 0.0409892 -0.00321426 0.01339 -0.010637 0.00664 -0.036627 -0.0199122 -0.0451087 -0.0278232 -0.500923 -0.519365 -0.505466 -0.524319 0.517026 0.537697 0.522975 0.543554 -0.512419 -0.534146 -0.519302 -0.540853 -0.476029 -0.482114 -0.494955 -0.502589 0.485597 0.49157 0.502654 0.510336 -0.469406 -0.475148 -0.48627 -0.492391 -0.0702119 -0.0534136 -0.0796672 -0.0623758 -0.437442 -0.441634 -0.456767 -0.462139 0.450588 0.454686 0.468129 0.473488 -0.436878 -0.441147 -0.453133 -0.458381 -0.397771 -0.400636 -0.417604 -0.42114 -0.358382 -0.359773 -0.378084 -0.380285 -0.103518 -0.0868642 -0.11408 -0.0967883 -0.318665 -0.318738 -0.338535 -0.339262 -0.27873 -0.277599 -0.298703 -0.298128 -0.238835 -0.236484 -0.258784 -0.257014 -0.198977 -0.195389 -0.218906 -0.21592 -0.159227 -0.15435 -0.179102 -0.174881 -0.119504 -0.113325 -0.139366 -0.133857 -0.0798788 -0.0723491 -0.0996945 -0.0928834 -0.0402547 -0.0313717 -0.0600736 -0.0519129 -0.000463272 0.00969239 -0.0203683 -0.0108581 0.0395138 0.05085 0.0195181 0.0302924 0.413949 0.417008 0.43227 0.435811 0.377431 0.379391 0.395692 0.398196 0.340976 0.341808 0.359204 0.360615 -0.404688 -0.407286 -0.420798 -0.424535 0.304534 0.304231 0.322757 0.32304 0.268011 0.266614 0.286274 0.285424 0.231398 0.228951 0.249704 0.247761 0.194724 0.191259 0.213058 0.210067 0.158112 0.153603 0.176417 0.17241 0.121393 0.115884 0.139746 0.134685 0.084975 0.0783219 0.103184 0.0971228 0.0485592 0.0407573 0.0667724 0.0595635 0.011983 0.00310959 0.0302787 0.0219233 -0.0248413 -0.034664 -0.00642359 -0.0158448 -0.13687 -0.120194 -0.148517 -0.131224 -0.371664 -0.372982 -0.388204 -0.390259 -0.170269 -0.153569 -0.182978 -0.165685 -0.337915 -0.338327 -0.354802 -0.355616 -0.203738 -0.187003 -0.217474 -0.200181 -0.304194 -0.303697 -0.321058 -0.320989 -0.237176 -0.220457 -0.251955 -0.234662 -0.270636 -0.269154 -0.287416 -0.286447 -0.253906 0.487827 0.492497 0.509389 0.51411 -0.464411 -0.482608 -0.486729 -0.467941 0.478435 0.497696 0.503123 0.482581 -0.472437 -0.492394 -0.498678 -0.477163 -0.0614297 -0.0723139 -0.0534932 -0.043134 -0.0980059 -0.109957 -0.0911368 -0.0797187 -0.134456 -0.147534 -0.128718 -0.116235 -0.171036 -0.185179 -0.166363 -0.152746 -0.207582 -0.222807 -0.203988 -0.189306 -0.244203 -0.260473 -0.24165 -0.225889 -0.281436 -0.298454 -0.279633 -0.262821 -0.318958 -0.336585 -0.317771 -0.300204 -0.356512 -0.374735 -0.355939 -0.337754 -0.393242 -0.412468 -0.393701 -0.374907 -0.428862 -0.449623 -0.430864 -0.411059 -0.44661 0.0794841 0.0920013 0.0714419 0.0594971 0.119272 0.133057 0.1125 0.0993797 0.158967 0.174067 0.153505 0.139115 0.198887 0.215192 0.194629 0.178927 0.238806 0.256316 0.235754 0.218846 0.278725 0.29744 0.276878 0.258766 0.318645 0.338564 0.318002 0.298685 0.358564 0.379688 0.359126 0.338604 0.399078 0.421119 0.400565 0.378829 0.439204 0.46235 0.441791 0.419137 0.458836 -0.431333 -0.451901 -0.455909 -0.434379 -0.389322 -0.410309 -0.412678 -0.391167 -0.347655 -0.36848 -0.369623 -0.348119 -0.305863 -0.326755 -0.326501 -0.305002 -0.26425 -0.285053 -0.28346 -0.261964 -0.22264 -0.243447 -0.240443 -0.218945 -0.181062 -0.201848 -0.19743 -0.175935 -0.139538 -0.160308 -0.154449 -0.132945 -0.0982271 -0.118885 -0.111576 -0.0900702 -0.0569128 -0.0775771 -0.0687037 -0.0471908 -0.0156252 -0.0362778 -0.0258469 -0.00432513 0.0257279 0.00504218 0.0170425 0.0385735 0.0672707 0.046494 0.060031 0.0815673 0.108953 0.088116 0.103097 0.124629 0.150532 0.129758 0.146117 0.167634 0.191825 0.171197 0.188994 0.210493 0.233096 0.212475 0.231859 0.253343 0.274817 0.253962 0.27495 0.296429 0.317467 0.296131 0.318508 0.339997 0.360933 0.339193 0.362491 0.383987 0.403214 0.382098 0.405895 0.427368 0.44429 0.423719 0.448604 0.470111 0.46596 -0.502353 0.518698 -0.513539 0.491629 0.446914 0.467211 0.470639 0.454938 0.446002 0.416011 0.431443 0.438844 0.423701 0.387505 0.401864 0.393222 0.408763 0.356439 0.371957 0.360937 0.377197 0.324526 0.340508 0.327914 0.344441 0.292619 0.308579 0.295192 0.311435 0.260952 0.276787 0.262602 0.278845 0.229422 0.245187 0.230084 0.246327 0.197942 0.213682 0.197591 0.213835 0.166474 0.182208 0.165104 0.181348 0.135025 0.150749 0.132628 0.148872 0.103637 0.119332 0.100182 0.116427 0.0723579 0.0880004 0.0677914 0.0840393 0.0411801 0.0567772 0.0357875 0.0517069 0.0100914 0.0256527 0.00364581 0.019754 -0.0211461 -0.00550949 -0.0124539 -0.0286801 -0.0524794 -0.0368 -0.0611371 -0.0448211 -0.0837704 -0.06812 -0.0934352 -0.0772534 -0.115067 -0.0994169 -0.109552 -0.125757 -0.146383 -0.130724 -0.141883 -0.158112 -0.177719 -0.162051 -0.174248 -0.190511 -0.209117 -0.193418 -0.206679 -0.222926 -0.240606 -0.224859 -0.23914 -0.2554 -0.271968 -0.256288 -0.287855 -0.271549 -0.303707 -0.287838 -0.304198 -0.320584 -0.335799 -0.319764 -0.337117 -0.353507 -0.367629 -0.351752 -0.369938 -0.385947 -0.397505 -0.382654 -0.401446 -0.417002 -0.427664 -0.412606 -0.432617 -0.44835 -0.463006 -0.445261 -0.466528 -0.482966 -0.481849 -0.46406 0.399285 0.42158 0.422921 0.408125 0.401767 0.374152 0.386939 0.394823 0.381165 0.346432 0.360423 0.351631 0.366686 0.316821 0.331671 0.320795 0.33622 0.286725 0.301669 0.289902 0.305336 0.256935 0.271835 0.259167 0.274488 0.22735 0.242142 0.228608 0.243863 0.197884 0.212617 0.198134 0.213365 0.168447 0.183165 0.167682 0.182907 0.139024 0.153735 0.137245 0.152461 0.109648 0.124336 0.106863 0.122049 0.0803792 0.0950169 0.0765889 0.0917237 0.0512355 0.0658175 0.046427 0.0615178 0.0221205 0.0366977 0.0163229 0.031379 -0.00706054 0.00755556 0.00124949 -0.0138891 -0.0363254 -0.0216717 -0.0441899 -0.0289974 -0.0655767 -0.0509398 -0.0744612 -0.059287 -0.0948892 -0.0802281 -0.104765 -0.0895869 -0.12403 -0.109459 -0.119802 -0.134989 -0.153311 -0.13867 -0.165295 -0.150099 -0.182743 -0.168026 -0.180482 -0.195708 -0.212215 -0.197479 -0.210916 -0.226187 -0.241595 -0.226907 -0.241351 -0.256557 -0.27101 -0.256302 -0.271737 -0.287127 -0.301172 -0.285922 -0.302516 -0.318086 -0.331754 -0.31633 -0.334045 -0.349466 -0.361041 -0.346527 -0.364703 -0.379066 -0.387094 -0.374299 -0.392748 -0.407218 -0.425061 -0.405945 -0.426746 -0.443928 -0.44459 -0.427371 -0.391218 -0.408133 -0.40987 -0.392653 -0.389636 -0.356736 -0.374053 -0.374779 -0.356986 -0.320503 -0.338666 -0.320047 -0.33827 -0.284021 -0.302277 -0.301236 -0.283018 -0.248411 -0.266015 -0.264452 -0.246372 -0.213347 -0.230663 -0.228517 -0.21074 -0.178818 -0.196077 -0.192941 -0.175203 -0.144378 -0.161597 -0.157447 -0.139694 -0.110033 -0.127208 -0.121987 -0.104296 -0.0756521 -0.092847 -0.0865711 -0.0688158 -0.041138 -0.0583954 -0.0510247 -0.0332626 -0.00646162 -0.0237923 -0.0153861 0.00248645 0.0280546 0.010812 0.0202876 0.03803 0.0623705 0.0452273 0.0557372 0.0733929 0.0966732 0.0795276 0.0910987 0.108753 0.131173 0.113918 0.126559 0.144362 0.16577 0.148463 0.162217 0.179971 0.200403 0.18308 0.197838 0.215628 0.234924 0.217661 0.233436 0.251197 0.269298 0.252113 0.268932 0.286646 0.303504 0.286407 0.304298 0.321969 0.337601 0.320558 0.339569 0.357243 0.371851 0.354727 0.374921 0.392626 0.406288 0.389075 0.410405 0.428166 0.441234 0.423758 0.446202 0.463164 0.47272 0.457101 0.479548 0.496035 0.494692 0.475978 -0.345638 -0.353636 -0.366071 -0.350789 -0.323459 -0.327855 -0.342033 -0.334704 -0.295909 -0.298629 -0.313577 -0.30973 -0.317671 -0.331793 -0.336257 -0.338207 -0.308658 -0.316268 -0.313398 -0.326887 -0.2872 -0.291765 -0.29803 -0.305062 -0.267539 -0.269521 -0.283958 -0.281711 -0.26105 -0.264533 -0.278217 -0.274095 -0.240104 -0.241101 -0.255326 -0.253817 -0.212885 -0.212802 -0.227013 -0.226499 -0.185441 -0.18434 -0.198602 -0.199167 -0.157878 -0.155842 -0.170084 -0.17166 -0.23588 -0.23825 -0.25147 -0.248451 -0.21112 -0.212263 -0.225383 -0.22351 -0.185893 -0.185919 -0.19916 -0.198523 -0.16022 -0.159294 -0.172599 -0.173063 -0.130394 -0.127458 -0.141627 -0.144135 -0.103056 -0.0992183 -0.116724 -0.113319 -0.134501 -0.132689 -0.145957 -0.147361 -0.10895 -0.106244 -0.11944 -0.121724 -0.0758323 -0.0709515 -0.0851364 -0.0894424 -0.0486091 -0.0427153 -0.0622127 -0.0568707 -0.021349 -0.0144546 -0.0349601 -0.0286129 0.00590057 0.0137562 -0.00769424 -0.000352115 -0.0835722 -0.0799413 -0.0930838 -0.0962604 -0.0582685 -0.0536765 -0.0668198 -0.0709162 -0.0329873 -0.0274057 -0.0405659 -0.0456138 -0.00770153 -0.00114033 -0.0203162 -0.0142891 0.0330391 0.0418755 0.0278105 0.0195009 0.0174797 0.0250131 0.0049272 0.0119298 0.0601046 0.0699728 0.0559018 0.0465934 0.0872436 0.0981719 0.0840439 0.0736841 0.114505 0.126489 0.112309 0.100878 0.141875 0.154884 0.140682 0.12819 0.169265 0.183298 0.169089 0.15557 0.196664 0.21173 0.197507 0.182965 0.224106 0.240242 0.225962 0.210385 0.251716 0.268939 0.254561 0.237911 0.279249 0.297628 0.283231 0.265497 0.305956 0.325887 0.311643 0.292595 0.331592 0.352552 0.318831 0.339253 0.0425023 0.0510482 0.0380116 0.0300256 0.0674935 0.0771055 0.0640396 0.0550191 0.0925351 0.103251 0.090129 0.0800242 0.117871 0.129604 0.116429 0.105204 0.143218 0.155972 0.142787 0.130545 0.168571 0.182348 0.16916 0.155896 0.193887 0.208726 0.195518 0.181231 0.219249 0.235208 0.22192 0.206568 0.244813 0.261755 0.248507 0.23203 0.26926 0.287281 0.274516 0.257081 0.290158 0.310554 0.279848 0.298327 0.351634 0.375083 0.363126 0.341807 0.379128 0.310563 0.330781 0.300397 0.321259 0.358744 0.360228 0.355549 0.380661 0.312636 0.335356 0.311858 0.332143 0.316015 0.317094 0.338103 0.33737 0.314701 0.274018 0.274764 0.295344 0.294972 0.233887 0.233827 0.253944 0.253943 0.195301 0.193892 0.213796 0.214609 0.157283 0.154229 0.174164 0.176329 0.118861 0.114216 0.134315 0.138112 0.0800799 0.0739779 0.0941379 0.0994882 0.0414286 0.0338843 0.053972 0.0607486 0.00307687 -0.00595886 0.0140258 0.0222352 -0.0351568 -0.0457097 -0.0257676 -0.0160587 -0.0734781 -0.0855207 -0.0655748 -0.0543336 -0.111911 -0.125389 -0.105453 -0.0927082 -0.150342 -0.165362 -0.145332 -0.131138 -0.188851 -0.205401 -0.185346 -0.169603 -0.227592 -0.245578 -0.225504 -0.208216 -0.266606 -0.285898 -0.265825 -0.247096 -0.306061 -0.326531 -0.30635 -0.286317 -0.345294 -0.36699 -0.346872 -0.325678 -0.384414 -0.407555 -0.387253 -0.364832 -0.425122 -0.448482 -0.428591 -0.404714 -0.464631 -0.488315 -0.468995 -0.444953 -0.489059 -0.470777 -0.428138 -0.433126 -0.451781 -0.446493 -0.415348 -0.421995 -0.420504 -0.439644 -0.376455 -0.39577 -0.38081 -0.400454 -0.389921 -0.394191 -0.413356 -0.409005 -0.37835 -0.384482 -0.396743 -0.402891 -0.377818 -0.353562 -0.35632 -0.375349 -0.371752 -0.345581 -0.349957 -0.367443 -0.361961 -0.316904 -0.318113 -0.337325 -0.335268 -0.279405 -0.279383 -0.298712 -0.29817 -0.241923 -0.240689 -0.260002 -0.260668 -0.204573 -0.202085 -0.221379 -0.223248 -0.167297 -0.163571 -0.182813 -0.185935 -0.130056 -0.125089 -0.144317 -0.148676 -0.0929198 -0.0867072 -0.105889 -0.111491 -0.0558102 -0.0483381 -0.0675248 -0.0743751 -0.0185374 -0.00980143 -0.0290794 -0.0371912 -0.312829 -0.315213 -0.332889 -0.329289 -0.277972 -0.279009 -0.297119 -0.29544 -0.242522 -0.242533 -0.260636 -0.260251 -0.207796 -0.206497 -0.224536 -0.225159 -0.173071 -0.170496 -0.1885 -0.190434 -0.138346 -0.134513 -0.1525 -0.155708 -0.103621 -0.0985818 -0.116517 -0.120983 -0.0689916 -0.0627102 -0.0806367 -0.0863175 -0.034118 -0.0266312 -0.0446464 -0.0515772 -0.340722 -0.358543 -0.362271 -0.343431 0.0189608 0.028941 0.00956372 0.000195123 0.0564727 0.0676841 0.0377099 0.0483076 0.0937729 0.106227 0.0869418 0.0751253 0.130961 0.144665 0.125428 0.11237 0.168201 0.183242 0.163898 0.149579 0.205598 0.221899 0.202552 0.186896 0.24322 0.260673 0.241323 0.224407 0.280877 0.299464 0.280115 0.262049 0.318513 0.338244 0.318892 0.299692 0.356743 0.377616 0.357965 0.337616 0.394831 0.416735 0.397286 0.375811 0.433425 0.455664 0.436633 0.414103 0.453124 0.426214 0.433939 0.430061 0.449166 0.395322 0.401095 0.410736 0.417985 0.36391 0.368166 0.384821 0.379635 0.331851 0.335017 0.351578 0.347876 0.300187 0.302137 0.318626 0.316027 0.268384 0.269125 0.285676 0.2843 0.236307 0.235896 0.252534 0.252353 0.204041 0.2025 0.219213 0.220175 0.171585 0.168955 0.185721 0.187807 0.13899 0.135359 0.152102 0.155276 0.106428 0.101828 0.118519 0.122699 0.074065 0.0684938 0.0850873 0.0902469 0.0418718 0.0352356 0.0518421 0.057985 0.00959999 0.00183592 0.018552 0.0257617 -0.0228595 -0.0317377 -0.014934 -0.00660933 -0.0553956 -0.0652677 -0.048541 -0.0391223 -0.0876641 -0.0985919 -0.0819343 -0.0715359 -0.119833 -0.131847 -0.11521 -0.103755 -0.152054 -0.165176 -0.148492 -0.135945 -0.184651 -0.198742 -0.182016 -0.168351 -0.217419 -0.232458 -0.215669 -0.201029 -0.250874 -0.26719 -0.249736 -0.234133 -0.285442 -0.302719 -0.285029 -0.26815 -0.32087 -0.338567 -0.303177 -0.32101 -0.319557 -0.304374 -0.322573 -0.324521 -0.305609 0.00101188 0.00969 -0.00844392 -0.0165776 0.0361068 0.0459972 0.0278549 0.0185468 0.0708479 0.082016 0.0534797 0.0639816 0.105366 0.117864 0.0998879 0.0881131 0.140064 0.153832 0.135828 0.122715 0.174987 0.189992 0.171909 0.15752 0.210168 0.226395 0.208195 0.192569 0.245812 0.263053 0.244834 0.227985 0.281119 0.299528 0.281325 0.263474 0.316161 0.336152 0.317652 0.298629 0.352408 0.373321 0.354867 0.334248 0.386817 0.409817 0.391167 0.369697 0.40638 0.391473 -0.26674 -0.285539 -0.286066 -0.267047 -0.229565 -0.248119 -0.247739 -0.228965 -0.193429 -0.211479 -0.210163 -0.191533 -0.157797 -0.175615 -0.172979 -0.154465 -0.122308 -0.14007 -0.135984 -0.117499 -0.086777 -0.104566 -0.0990068 -0.0805086 -0.0512453 -0.0690366 -0.0620304 -0.0435736 0.355546 0.360033 0.375194 0.371245 0.344497 0.35025 0.348674 0.365353 0.31075 0.327524 0.331268 0.313769 0.32406 0.328267 0.343723 0.339771 0.31337 0.31903 0.33417 0.328826 0.312423 0.294598 0.297706 0.312964 0.309334 0.265266 0.267121 0.282464 0.279963 0.23541 0.236143 0.251629 0.250356 0.205433 0.205017 0.220601 0.220427 0.175213 0.173677 0.189355 0.190319 0.144772 0.14216 0.157901 0.15998 0.114177 0.110581 0.1263 0.129459 0.0836725 0.0791471 0.0947637 0.0989163 0.286401 0.290848 0.304979 0.299871 0.260035 0.262963 0.27706 0.273285 0.232323 0.234156 0.248527 0.246213 0.204412 0.205205 0.21964 0.218376 0.176691 0.176231 0.190792 0.190557 0.148386 0.146858 0.161523 0.162525 0.119886 0.117311 0.132045 0.134119 0.0912567 0.087744 0.102426 0.105554 0.0534329 0.0479278 0.063464 0.068564 0.0627972 0.0583924 0.0729408 0.077026 0.279254 0.294975 0.297437 0.280543 0.24686 0.263095 0.263714 0.246667 0.213231 0.230045 0.229233 0.212018 0.179818 0.196503 0.1947 0.177722 0.146979 0.163382 0.160686 0.143844 0.114468 0.130714 0.126966 0.110241 0.0823092 0.0983854 0.0935378 0.0769069 0.0505456 0.0664377 0.0604035 0.0436578 0.0183028 0.0344299 0.00998519 0.0269132 -0.0145735 0.00184895 -0.0070799 -0.0240253 0.0233242 0.0167316 0.0323181 0.0384099 -0.00692831 -0.0146325 0.0082327 0.00105938 -0.037363 -0.0461273 -0.030386 -0.022121 -0.0674756 -0.0773159 -0.0617138 -0.052428 -0.0974158 -0.108367 -0.0928184 -0.0824562 -0.12738 -0.139456 -0.123884 -0.112405 -0.157677 -0.170901 -0.155141 -0.142522 -0.188475 -0.202688 -0.186852 -0.173082 -0.219589 -0.234971 -0.218795 -0.20402 -0.251502 -0.268204 -0.251475 -0.235519 -0.284719 -0.302524 -0.268082 -0.285358 -0.301228 -0.281514 -0.295165 -0.283357 -0.299319 -0.275976 -0.281766 -0.278941 -0.292088 -0.252152 -0.256849 -0.263998 -0.269422 -0.229193 -0.23282 -0.24064 -0.244893 -0.207046 -0.209372 -0.221245 -0.218135 -0.184314 -0.18537 -0.197493 -0.195722 -0.16057 -0.160645 -0.172999 -0.172464 -0.136512 -0.135745 -0.148128 -0.148548 -0.112729 -0.111077 -0.123377 -0.124617 -0.0891018 -0.0865719 -0.0987889 -0.100915 -0.0656603 -0.0621959 -0.0743803 -0.0773814 -0.0423036 -0.0378759 -0.0500495 -0.0539725 -0.0189768 -0.0135698 -0.0306176 -0.0257423 0.0042481 0.0106289 -0.00732565 -0.00148297 0.0272513 0.0346326 0.0226109 0.0157945 0.0501014 0.0585425 0.0465462 0.0387117 0.0730006 0.0825062 0.0704896 0.0615702 0.0960541 0.106694 0.0945366 0.0845347 0.119348 0.131014 0.118851 0.107702 0.14267 0.155352 0.143186 0.131009 0.165916 0.179633 0.16749 0.154299 0.18907 0.203889 0.191728 0.177499 0.212294 0.228277 0.216019 0.200681 0.236084 0.252409 0.240691 0.224179 0.256149 0.272958 0.263008 0.246241 0.27071 0.290502 0.263647 0.280882 0.291371 0.272618 0.293918 0.272028 0.292597 0.273665 -0.0159019 -0.0336004 -0.0252072 -0.00678099 0.019345 0.00169214 0.0115218 0.0300189 0.054825 0.0370606 0.0484294 0.0670851 0.0907523 0.0727901 0.085722 0.104442 0.126611 0.108727 0.123058 0.141581 0.0346933 0.0292813 0.0437737 0.0487727 0.00666745 0.000133864 0.0147131 0.0207262 -0.0215165 -0.0291819 -0.00738694 -0.0145031 -0.0495778 -0.0582769 -0.0437556 -0.0355385 -0.0773486 -0.0871303 -0.0726976 -0.0634766 -0.104935 -0.115899 -0.10146 -0.0911553 -0.132977 -0.145067 -0.130464 -0.118957 -0.161676 -0.174818 -0.159975 -0.147323 -0.190792 -0.204938 -0.189941 -0.176237 -0.219995 -0.23549 -0.220094 -0.205372 -0.250096 -0.267131 -0.251075 -0.234993 -0.265742 -0.248237 -0.262019 -0.249438 -0.264629 -0.250505 0.161632 0.144199 0.159801 0.178085 0.196349 0.179032 0.196167 0.214713 0.233124 0.21472 0.233842 0.253159 0.252826 0.229975 0.23323 0.25226 0.24993 0.243166 0.224551 0.227494 0.230515 0.240091 0.203074 0.21377 0.20794 0.219296 0.182132 0.192598 0.185868 0.196946 0.161271 0.171717 0.163852 0.174905 0.140133 0.150715 0.141652 0.152757 0.118864 0.129505 0.11935 0.130497 0.0976066 0.108238 0.0970724 0.108208 0.0765016 0.087059 0.0749929 0.0860126 0.0556491 0.0660909 0.0531192 0.0640666 0.0349651 0.0453403 0.0313549 0.0422867 0.194797 0.19591 0.213532 0.213626 0.16287 0.162616 0.179223 0.178839 0.131815 0.12955 0.146371 0.147473 0.0992101 0.0952903 0.112562 0.115606 0.065956 0.0606874 0.0779992 0.0826038 0.0331838 0.0265677 0.0436463 0.0495405 0.000837904 -0.00721551 0.00973245 0.0169697 -0.0315122 -0.0410496 -0.0240699 -0.0153757 -0.0641672 -0.0751353 -0.05808 -0.0478767 -0.0969668 -0.109297 -0.0922626 -0.0806086 -0.129582 -0.143346 -0.126348 -0.113309 -0.162223 -0.177482 -0.160418 -0.145921 -0.195329 -0.212103 -0.19478 -0.17876 -0.229604 -0.247829 -0.229967 -0.212412 -0.265308 -0.284512 -0.26639 -0.247387 -0.301467 -0.320809 -0.303323 -0.283378 -0.334915 -0.355483 -0.338332 -0.318302 -0.356395 -0.340735 -0.306208 -0.309886 -0.325605 -0.320758 -0.291339 -0.299035 -0.296715 -0.312747 -0.261135 -0.276281 -0.280941 -0.263536 -0.274092 -0.276351 -0.293142 -0.290232 -0.265886 -0.270254 -0.278757 -0.28569 -0.254328 -0.260314 -0.257987 -0.272519 -0.241117 -0.242138 -0.259217 -0.257608 -0.235923 -0.238817 -0.254652 -0.250888 -0.227627 -0.23207 -0.240912 -0.2464 -0.208646 -0.20854 -0.225265 -0.224876 -0.176569 -0.175137 -0.191865 -0.192611 -0.144381 -0.141681 -0.158409 -0.160475 -0.112194 -0.108225 -0.124953 -0.128288 -0.0797948 -0.0747071 -0.0913885 -0.0960009 -0.0474408 -0.0410884 -0.0578993 -0.0636455 -0.0310383 -0.206531 -0.207906 -0.223491 -0.221212 -0.201527 -0.204367 -0.214545 -0.218402 -0.1773 -0.177261 -0.192653 -0.191916 -0.175561 -0.176779 -0.190738 -0.18855 -0.147879 -0.146447 -0.161907 -0.162603 -0.118229 -0.115529 -0.130988 -0.133054 -0.0880075 -0.0842153 -0.0997711 -0.103118 -0.0581892 -0.0531292 -0.0686692 -0.0731224 -0.148828 -0.148687 -0.162751 -0.162223 -0.121727 -0.120295 -0.134486 -0.135294 -0.0937936 -0.0912162 -0.105673 -0.107753 -0.066145 -0.0624803 -0.076741 -0.0799811 -0.227427 -0.244165 -0.246018 -0.228881 -0.224511 -0.239275 -0.226324 -0.242517 -0.226457 -0.028215 -0.0217027 -0.0375134 -0.0432512 0.00274535 0.0102308 -0.00558382 -0.0127542 0.0327802 0.0413702 0.0177818 0.025885 0.0616231 0.0716595 0.0564242 0.0472273 -0.0389754 -0.0339118 -0.0482592 -0.052606 0.0913901 0.102629 0.0871851 0.0764941 0.12156 0.133975 0.118347 0.106456 0.152068 0.165654 0.149854 0.13679 0.182934 0.197794 0.181696 0.167467 0.214537 0.230417 0.214197 0.198697 0.246325 0.262537 0.246937 0.230449 0.275965 0.293166 0.27805 0.261265 0.294478 0.28162 0.252793 0.256745 0.269352 0.264533 0.239029 0.246154 0.242941 0.257167 0.212464 0.225811 0.229082 0.213769 0.227106 0.230002 0.2433 0.240012 0.201038 0.203008 0.216404 0.214076 0.175458 0.176359 0.189662 0.18825 0.149759 0.149353 0.162948 0.162607 0.123532 0.12199 0.135678 0.13663 0.0969476 0.0943837 0.108126 0.110218 0.0702557 0.066807 0.0804563 0.0835869 0.218521 0.223056 0.235348 0.228884 0.20766 0.213283 0.210278 0.223071 0.194762 0.198172 0.210635 0.206624 0.185676 0.19049 0.196596 0.201796 0.171791 0.173911 0.186137 0.183274 0.165605 0.169004 0.179917 0.175627 0.148678 0.149501 0.161795 0.160245 0.124994 0.124546 0.137099 0.136827 0.100768 0.0991438 0.111864 0.11286 0.145299 0.147273 0.158278 0.155489 0.124062 0.124815 0.136097 0.134674 0.102493 0.101924 0.113467 0.113262 0.0761004 0.0734653 0.0862269 0.0884113 0.0803155 0.0785061 0.0902564 0.0913836 0.0438545 0.0395507 0.0530242 0.0570656 0.0513115 0.0478668 0.060476 0.0636962 0.0576228 0.0547668 0.066565 0.0689503 0.183656 0.197997 0.198801 0.183606 0.181914 0.194679 0.183092 0.196911 0.184137 0.155365 0.169459 0.168871 0.154053 0.156926 0.169357 0.170045 0.156498 0.126971 0.141133 0.139238 0.124607 0.098737 0.112816 0.109858 0.0954113 0.0706405 0.0846558 0.0807093 0.0664765 0.130745 0.143806 0.142794 0.129203 0.0427655 0.0566704 0.0518633 0.0381166 0.0171967 0.0300574 0.0103189 0.024696 -0.0116204 0.00283508 -0.0196123 -0.00474482 -0.0253714 -0.195754 -0.199057 -0.211461 -0.209998 -0.17189 -0.174142 -0.186451 -0.183816 -0.147819 -0.148677 -0.161395 -0.159933 -0.122605 -0.122498 -0.135397 -0.135228 -0.0972668 -0.0958503 -0.109156 -0.10994 -0.0717346 -0.0692532 -0.0824187 -0.0845033 -0.0464168 -0.0430011 -0.0559332 -0.0591002 -0.195288 -0.211261 -0.212113 -0.195716 -0.193858 -0.209028 -0.194997 -0.210355 -0.195248 -0.164001 -0.179588 -0.179327 -0.163539 -0.16482 -0.17925 -0.179759 -0.164867 -0.133809 -0.148912 -0.147673 -0.132117 -0.10412 -0.119005 -0.116509 -0.100954 -0.0740253 -0.0891408 -0.085154 -0.0694763 -0.0439138 -0.059022 -0.0537016 -0.0380726 -0.0142772 -0.0291415 -0.0225684 -0.00707107 0.0150535 0.000334834 0.00825358 0.0237691 0.0445745 0.029761 0.0391718 0.0549148 0.0745325 0.0595217 0.0865253 0.0705276 0.104705 0.0896774 0.102258 0.117921 0.133126 0.119078 0.1328 0.147642 -0.164962 -0.180137 -0.179213 -0.165428 -0.16895 -0.144771 -0.146667 -0.158046 -0.155085 -0.121612 -0.12246 -0.134399 -0.133209 -0.098559 -0.0982493 -0.110252 -0.110093 -0.0753676 -0.0738749 -0.0859728 -0.0869686 -0.0518787 -0.0494521 -0.061448 -0.0636392 0.0179943 0.0126019 0.0260516 0.03097 -0.00789434 -0.0144447 0.00510564 -0.00089869 -0.0339611 -0.0415216 -0.0208985 -0.0280277 -0.0597164 -0.0682888 -0.0549434 -0.0468458 -0.0849357 -0.0946838 -0.0814409 -0.0723511 -0.110359 -0.121407 -0.107942 -0.0976549 -0.136757 -0.148955 -0.135161 -0.123545 -0.164314 -0.177305 -0.163306 -0.150527 -0.19187 -0.205706 -0.191676 -0.178113 -0.218964 -0.234294 -0.219802 -0.205378 -0.233494 -0.221847 -0.236842 -0.23492 -0.220748 -0.225864 -0.200904 -0.204323 -0.214864 -0.211374 -0.180841 -0.182873 -0.193734 -0.190961 -0.159164 -0.160128 -0.171511 -0.170054 -0.136854 -0.136933 -0.148021 -0.148475 -0.114677 -0.113942 -0.125356 -0.125765 -0.0927111 -0.09114 -0.102479 -0.103694 -0.0707478 -0.0684278 -0.0796795 -0.081731 -0.0495292 -0.0461432 -0.0573555 -0.0601338 -0.0281674 -0.0237982 -0.0388328 -0.0349959 -0.00685825 -0.00153257 -0.0174786 -0.0126738 0.0142009 0.0204916 0.00372104 0.00947155 0.024632 0.0270714 0.0228126 0.0351547 0.0392099 0.0037394 -0.00180139 0.0105775 0.0154704 -0.0201414 -0.0267935 -0.00813863 -0.0143039 -0.0443188 -0.0517796 -0.0322185 -0.0394424 -0.0672977 -0.0758732 -0.063819 -0.0558435 -0.0902597 -0.100057 -0.0879137 -0.0788065 -0.113855 -0.125042 -0.112413 -0.102045 -0.139135 -0.151462 -0.138242 -0.126448 -0.166013 -0.17871 -0.165489 -0.152562 -0.191567 -0.205091 -0.192134 -0.17888 -0.206538 -0.196654 -0.174846 -0.178159 -0.187663 -0.183387 -0.162508 -0.168898 -0.164526 -0.176738 -0.155604 -0.157647 -0.167989 -0.165323 -0.135152 -0.136252 -0.146914 -0.145399 -0.114782 -0.114972 -0.125574 -0.124969 -0.148584 -0.152317 -0.161448 -0.155699 -0.130748 -0.13319 -0.14291 -0.139684 -0.112749 -0.114011 -0.123699 -0.121754 -0.139717 -0.151143 -0.15258 -0.139689 -0.138423 -0.143675 -0.139295 -0.150223 -0.123549 -0.12739 -0.130975 -0.135795 -0.108418 -0.110846 -0.115992 -0.119337 -0.0946746 -0.0939332 -0.104435 -0.104729 -0.0748127 -0.0730233 -0.0847468 -0.0835262 -0.0551275 -0.0525617 -0.0627101 -0.0649686 -0.0356011 -0.0321125 -0.0423327 -0.0453572 -0.0161198 -0.0117145 -0.0258345 -0.0219062 0.00314447 0.008445 -0.00643868 -0.00161321 0.0219981 0.0282442 0.0126312 0.0183464 0.040557 0.0478521 0.0380069 0.0313276 0.0591664 0.0675718 0.0576511 0.0498904 0.0780831 0.0875771 0.0775352 0.0686354 0.0972754 0.107801 0.0976867 0.0876831 0.116593 0.128098 0.117982 0.106941 0.135931 0.148343 0.138302 0.126278 0.155303 0.168448 0.158553 0.145614 0.174996 0.188793 0.178862 0.165171 0.197346 0.210832 0.200568 0.186077 0.213373 0.194916 0.195174 0.196474 0.212294 -0.0947022 -0.0949318 -0.1045 -0.103731 -0.0928 -0.0940055 -0.100631 -0.102537 -0.0767509 -0.0760234 -0.0854765 -0.0857311 -0.0589758 -0.0572894 -0.066663 -0.0678668 -0.0413405 -0.0387055 -0.0480072 -0.0501567 -0.0238112 -0.0201964 -0.0294806 -0.0325629 -0.00627803 -0.00179406 -0.0150048 -0.0109677 0.0109124 0.0162236 0.00238413 0.0072684 0.0275541 0.0338109 0.0193022 0.0250196 0.0439535 0.0512995 0.0424972 0.035802 0.0606478 0.0690962 0.0601478 0.052321 0.077804 0.0872704 0.0781891 0.069232 0.0951305 0.105595 0.096457 0.0864731 0.112544 0.123975 0.114839 0.103852 0.130184 0.14249 0.133304 0.121337 0.148262 0.1614 0.152129 0.139259 0.168134 0.182445 0.171967 0.158208 0.181218 -0.0768493 -0.0770493 -0.0855421 -0.0848348 -0.0609662 -0.0602153 -0.0686296 -0.0689153 -0.0452431 -0.0435333 -0.0518856 -0.0531078 -0.0297034 -0.0269975 -0.0353041 -0.0374689 -0.0142724 -0.0105106 -0.0188294 -0.0219724 0.00138564 0.00591918 -0.00638443 -0.00222261 0.0164136 0.0217439 0.0089882 0.013897 0.0306361 0.0370304 0.029328 0.0236029 0.0451563 0.052626 0.0447874 0.0379323 0.0602539 0.0687519 0.0606909 0.0527156 0.0755768 0.0850788 0.0769386 0.0679209 0.0909555 0.101476 0.0933052 0.0832786 0.106365 0.117947 0.10974 0.0986869 0.12239 0.135053 0.126605 0.114326 0.139715 0.153661 0.144356 0.131086 0.159877 0.177033 0.164454 0.149798 0.176734 0.161581 0.146548 0.125509 0.129495 0.142071 0.132755 0.105162 0.105181 0.115552 0.118792 0.0797817 0.0774084 0.0925892 0.0919006 0.0533587 0.0492471 0.066535 0.0635991 0.111178 0.118377 0.124954 0.116983 0.0973999 0.104312 0.102166 0.109498 0.0843772 0.0909285 0.0879314 0.0950789 0.0712204 0.077821 0.0736502 0.0808021 0.0579237 0.0645845 0.0593276 0.0664637 0.0445184 0.0512282 0.0450632 0.0520933 0.0313158 0.0379312 0.0311888 0.0379385 0.026792 0.021221 0.0353434 0.0400178 0.000439588 -0.00659625 0.0074072 0.0135445 -0.0260468 -0.0346365 -0.02050