<?xml version="1.0"?>
<VTKFile byte_order="LittleEndian" type="UnstructuredGrid" version="0.1">
<UnstructuredGrid>
<Piece NumberOfCells="2042" NumberOfPoints="4205">
<PointData>
<DataArray Name="Warping_X" format="ascii" type="Float64">
0.00956466 0.00924208 0.00891949 0.00859691 0.00827433 0.00795175 0.00762917 0.00730659 0.00698401 0.00666143 0.00633885 0.00601627 0.00569369 0.00537111 0.00504853 0.00472595 0.00440337 0.00408078 0.0037582 0.00343562 0.00311304 0.00279046 0.00246788 0.0021453 0.00182272 0.00150014 0.00117756 0.000854978 0.000532398 0.000209817 -0.000112764 -0.000435344 -0.000757925 -0.00108051 -0.00140309 -0.00172567 -0.00204825 -0.00237083 -0.00269341 -0.00301599 -0.00333857 -0.00366115 -0.00398373 -0.00430631 -0.00462889 -0.00495147 -0.00527405 -0.00559663 -0.00591922 -0.0062418 -0.00656438 -0.00688696 -0.00720954 -0.00753212 -0.0078547 -0.00817728 -0.00849986 -0.00882244 -0.00914502 -0.0094676 -0.00979018 -0.0101128 -0.0104353 -0.0104353 -0.0104353 -0.0104353 -0.0104353 -0.0104353 -0.0104353 -0.0104353 -0.0104353 -0.0104353 -0.0104353 -0.0104353 -0.0104353 -0.0104353 -0.0104353 -0.0104353 -0.0104353 -0.0104353 -0.0104353 -0.0104353 -0.0104353 -0.0104353 -0.0104353 -0.0104353 -0.0104353 -0.0104353 -0.0104353 -0.0104353 -0.0104353 -0.0104353 -0.0104353 -0.0104353 -0.0104353 -0.0104353 -0.0104353 -0.0104353 -0.0104353 -0.0104353 -0.0104353 -0.0104353 -0.0104353 -0.0104353 -0.0104353 -0.0104353 -0.0104353 -0.0104353 -0.0104353 -0.0104353 -0.0104353 -0.0104353 -0.0104353 -0.0104353 -0.0104353 -0.0104353 -0.0104353 -0.0104353 -0.0104353 -0.0104353 -0.0104353 -0.010065 -0.0096946 -0.00932423 -0.00895386 -0.00858349 -0.00821312 -0.00784275 -0.00747238 -0.00710201 -0.00673164 -0.00636127 -0.0059909 -0.00562053 -0.00525016 -0.00487979 -0.00450942 -0.00413905 -0.00376868 -0.00339831 -0.00302794 -0.00265757 -0.0022872 -0.00191683 -0.00154646 -0.00117608 -0.000805715 -0.000435344 -6.49739e-05 0.000305396 0.000675767 0.00104614 0.00141651 0.00178688 0.00215725 0.00252762 0.00289799 0.00326836 0.00363873 0.0040091 0.00437947 0.00474984 0.00512021 0.00549058 0.00586095 0.00623132 0.00660169 0.00697206 0.00734243 0.0077128 0.00808317 0.00845354 0.00882392 0.00919429 0.00956466 0.00956466 0.00956466 0.00956466 0.00956466 0.00956466 0.00956466 0.00956466 0.00956466 0.00956466 0.00956466 0.00956466 0.00956466 0.00956466 0.00956466 0.00956466 0.00956466 0.00956466 0.00956466 0.00956466 0.00956466 0.00956466 0.00956466 0.00956466 0.00956466 0.00956466 0.00956466 0.00956466 0.00956466 0.00956466 0.00956466 0.00956466 0.00956466 0.00956466 0.00956466 0.00956466 0.00956466 0.00956466 0.00956466 0.00956466 0.00956466 0.00956466 0.00956466 0.00956466 0.00956466 0.00956466 0.00956466 0.00956466 0.00956466 0.00956466 0.00956466 0.00956466 0.00956466 0.00956466 0.00956466 0.00956466 0.00956466 0.00956466 0.00956466 0.00956466 0.00956466 0.00956466 0.00956466 0.00956466 0.00956466 0.00956466 -0.00998994 -0.00989006 -0.0102126 -0.0102126 -0.00992582 -0.0101806 -0.00981021 -0.0101806 0.00905368 0.0089388 0.00930917 0.00930917 0.00913388 0.00934927 0.00902669 0.00934927 0.00893267 0.00899317 0.00924866 0.00924866 -0.00979431 -0.0101148 -0.00986006 -0.0101148 -0.00942717 -0.0092861 -0.00970856 -0.00960868 0.00903833 0.00930149 0.0090861 0.00930149 0.00890355 0.00891811 0.0092341 0.0092341 0.00892457 0.00891406 0.00924461 0.00924461 0.0089691 0.00894683 0.00926688 0.00926688 0.00899409 0.00898159 0.00927937 0.00927937 0.00900303 0.00900107 0.00928635 0.00928635 0.00900801 0.00900803 0.00928633 0.00928633 0.00900799 0.009008 0.00928633 0.00928633 0.00900799 0.00900799 0.00928632 0.00928632 0.00900799 0.00900799 0.00928632 0.00928632 0.00900799 0.00900799 0.00928632 0.00928632 0.00900799 0.00900799 0.00928632 0.00928632 0.00900799 0.00900799 0.00928632 0.00928632 0.00900799 0.00900799 0.00928632 0.00928632 0.00901824 0.00901312 0.00929145 0.00929145 0.00902834 0.00902329 0.0092965 0.0092965 0.00903766 0.009033 0.00930116 0.00930116 0.00858733 0.00886061 0.00843083 0.00875341 -0.00986998 -0.00992996 -0.0101527 -0.0101527 -0.00928232 -0.00960407 -0.00911809 -0.00948846 -0.00976855 -0.0101019 -0.00978143 -0.0101019 -0.00883587 -0.00866787 -0.00913152 -0.00899045 0.00899159 0.00927812 0.00901496 0.00927812 0.00904411 0.00904088 0.00930438 0.00930438 -0.00979833 -0.0101168 -0.00978344 -0.0101168 -0.0081836 -0.00801915 -0.00850973 -0.00834173 0.00898085 0.00927275 0.00898622 0.00927275 -0.00979659 -0.010116 -0.00979746 -0.010116 -0.00980468 -0.01012 -0.00980063 -0.01012 0.00904506 0.00904458 0.00930486 0.00930486 -0.00981635 -0.0101258 -0.00981051 -0.0101258 -0.00982148 -0.0101284 -0.00981892 -0.0101284 -0.00982269 -0.010129 -0.00982209 -0.010129 -0.00982285 -0.0101291 -0.00982277 -0.0101291 -0.00982285 -0.0101291 -0.00982285 -0.0101291 -0.00982338 -0.0101294 -0.00982311 -0.0101294 -0.00982617 -0.0101308 -0.00982478 -0.0101308 -0.00983285 -0.0101341 -0.00982951 -0.0101341 -0.00984189 -0.0101386 -0.00983737 -0.0101386 -0.00984877 -0.0101421 -0.00984533 -0.0101421 -0.00753513 -0.00737234 -0.00785936 -0.00769492 -0.00688773 -0.00672606 -0.00721143 -0.00704864 -0.00624262 -0.00608092 -0.00656518 -0.0064035 0.00899786 0.00928126 0.00898935 0.00928126 -0.00559749 -0.00543577 -0.00592005 -0.00575835 -0.00495153 -0.00479021 -0.00527451 -0.00511279 -0.00430507 -0.0041444 -0.0046283 -0.00446698 -0.00365827 -0.00349842 -0.00398167 -0.003821 -0.00301171 -0.00285262 -0.00333499 -0.0031752 -0.00236448 -0.00220636 -0.00268809 -0.00252895 -0.00172065 -0.00156187 -0.00204257 -0.00188445 -0.00107637 -0.000917149 -0.00139851 -0.00123973 -0.000429942 -0.000271353 -0.000753157 -0.000593934 0.000219889 0.000376143 -0.000105027 5.35627e-05 0.00904508 0.00904507 0.00930487 0.00930487 0.00902797 0.00929631 0.00901292 0.00929631 0.00904513 0.0090451 0.00930489 0.00930489 0.00904129 0.00930297 0.00903463 0.00930297 0.00904587 0.0090455 0.00930526 0.00930526 0.00904512 0.00930489 0.0090432 0.00930489 0.00904626 0.00904606 0.00930546 0.00930546 0.00904601 0.00930533 0.00904557 0.00930533 0.00904614 0.00840849 0.00824583 0.00873108 0.0086162 0.008004 0.00829567 0.00813917 0.00781659 -0.00983388 -0.00985193 -0.0101346 -0.0101346 -0.0086026 -0.00894246 -0.00877823 -0.00840786 0.000865251 0.0010214 0.000698824 0.00054257 0.00151064 0.00166668 0.0013441 0.00118795 0.00215465 0.00231126 0.00198868 0.00183265 0.00280019 0.00295662 0.00263404 0.00247742 0.00344397 0.00360109 0.00327851 0.00312208 0.00408835 0.00424586 0.00392328 0.00376616 0.00474611 0.00489732 0.00457474 0.00441723 0.00541238 0.00555303 0.00523045 0.00507925 0.00608782 0.00621333 0.00589075 0.0057501 0.00675946 0.00687174 0.00654916 0.00642364 0.00739796 0.00751357 0.00719099 0.00707871 0.00770098 -0.00985051 -0.0101429 -0.0101429 -0.00984964 -0.00984887 -0.0101421 -0.0101421 -0.00984969 -0.00985303 -0.0101442 -0.0101442 -0.00985095 -0.00985303 -0.0101442 -0.0101442 -0.00985303 -0.00985303 -0.0101442 -0.0101442 -0.00985303 -0.00985303 -0.0101442 -0.0101442 -0.00985303 -0.00985303 -0.0101442 -0.0101442 -0.00985303 -0.00985303 -0.0101442 -0.0101442 -0.00985303 -0.00984573 -0.0101405 -0.0101405 -0.00984938 -0.00984952 -0.0101424 -0.0101424 -0.00984763 -0.0098417 -0.00785964 -0.00823112 -0.00803638 -0.00766601 -0.00712507 -0.00749235 -0.00729872 -0.00692835 -0.0063883 -0.00675669 -0.00655997 -0.0061896 -0.00564564 -0.00601697 -0.00581827 -0.0054479 -0.00490545 -0.00527554 -0.00507767 -0.0047073 -0.00416267 -0.00453406 -0.00433604 -0.00396567 -0.00342219 -0.00379243 -0.00359543 -0.00322506 -0.00267972 -0.00305096 -0.00285383 -0.00248346 -0.00194318 -0.00231145 -0.00211519 -0.00174482 -0.00120645 -0.00157482 -0.00137645 -0.00100608 -0.000471173 -0.000838812 -0.000638444 -0.000268073 0.000264002 -0.000103585 9.95141e-05 0.000469884 0.0010017 0.00063285 0.000838732 0.0012091 0.00174285 0.00137227 0.00157968 0.00195005 0.00248555 0.0021142 0.0023214 0.00269177 0.00322657 0.00285606 0.00306228 0.00343265 0.00396809 0.00359733 0.00380341 0.00417378 0.00471531 0.0043417 0.00454739 0.00491776 0.0054716 0.00509346 0.00529591 0.00566628 0.00624301 0.0058573 0.00605198 0.00642235 0.00701283 0.00662792 0.00680726 0.00717763 0.00772078 0.0073668 0.0075316 0.00790198 0.00806463 0.00881283 -0.00964858 -0.00953832 0.00867058 0.00823469 0.00832159 0.00858368 0.00856912 0.00797773 0.00823231 0.00823709 0.00857152 0.00858203 0.00834165 0.00828698 0.00865886 0.00863659 0.00841458 0.0083816 0.00870433 0.00869184 0.00843975 0.00842716 0.0087239 0.00871692 0.00844657 0.00844316 0.00872729 0.00872731 0.00844831 0.00844744 0.00872815 0.00872816 0.00844845 0.00844838 0.00872822 0.00872822 0.00844844 0.00844845 0.00872821 0.00872821 0.00844843 0.00844843 0.00872821 0.00872821 0.00844857 0.0084485 0.00872828 0.00872828 0.00844953 0.00844905 0.00872876 0.00872876 0.008453 0.00845127 0.0087305 0.0087305 0.00846212 0.00845756 0.00874018 0.00873506 0.00848105 0.00847158 0.0087547 0.00874964 0.00850091 0.00849098 0.00876463 0.00876929 0.00851518 0.00850805 0.00877965 0.00877642 0.00852068 0.00851793 0.00878287 0.00878239 0.00852251 0.00852159 0.00878378 0.00878379 0.00852377 0.00852314 0.00878442 0.00878445 0.00852354 0.00852365 0.00878433 0.0087847 0.00852373 0.00852363 0.0087848 0.008785 0.00852583 0.00852478 0.00878604 0.00878592 0.00852491 0.00852537 0.00878501 0.00878546 0.00852437 0.00852464 0.00878474 0.00878283 0.00851282 0.00851859 0.00877705 0.00877039 0.00847357 0.0084932 0.00875077 0.00873572 0.0083815 0.0084316 0.00869375 0.00868524 0.00837472 0.00838217 0.00867778 0.00868315 0.00845628 0.0084155 0.00872393 0.0087473 0.00852181 0.00823014 0.0074917 0.0076099 0.00786685 0.00786201 0.00725593 0.00768831 0.00759001 0.00796031 0.00801498 0.00781328 0.0077508 0.00811802 0.00807747 0.00786017 0.00783673 0.00815237 0.00813978 0.0078837 0.00787434 0.00816514 0.00816173 0.00788866 0.00788618 0.00816849 0.00816762 0.0078886 0.00788863 0.00816852 0.00816845 0.00788846 0.00788853 0.00816845 0.00816845 0.00788844 0.00788845 0.00816843 0.00816844 0.00788852 0.00788848 0.00816854 0.00816847 0.00788931 0.00788891 0.00816942 0.00816894 0.00789311 0.00789121 0.00817306 0.00817132 0.00790432 0.00789871 0.00818322 0.00817866 0.0079263 0.00791531 0.00820367 0.00819421 0.00795484 0.00794057 0.00821794 0.00822788 0.00797872 0.00796678 0.00824695 0.00823982 0.00799135 0.00798503 0.00825601 0.00825326 0.00799682 0.00799408 0.00825966 0.00825875 0.00799715 0.00799698 0.00825983 0.00826046 0.00799744 0.00799729 0.00826049 0.00826061 0.00799828 0.00799786 0.00826091 0.00826101 0.00799827 0.00799828 0.008261 0.00826205 0.00799662 0.00799745 0.00826123 0.00826077 0.00799715 0.00799688 0.00826103 0.00826076 0.00799865 0.00800132 0.00826493 0.00825916 0.00797891 0.0079922 0.00824586 0.00822624 0.00788217 0.00793495 0.00818229 0.00813183 0.00771382 0.00780241 0.00805173 0.00804427 0.00784974 0.00778178 0.00811223 0.00815301 0.00792687 0.00762385 0.00721352 0.00753163 0.00730574 0.00698649 0.00746367 0.00650425 0.00685888 0.00663186 0.00629603 0.00579199 0.00614812 0.00560219 0.00593991 0.00509911 0.00544555 0.00525574 0.00492261 0.0044326 0.00476073 0.00458424 0.00425536 0.00377785 0.00410011 0.0039331 0.00361091 0.00313297 0.00345541 0.00328847 0.00296658 0.00248767 0.00281032 0.00264393 0.00232116 0.00184307 0.00216537 0.00199886 0.00167686 0.00119799 0.00152053 0.00135432 0.00103162 0.000551417 0.000874702 0.000708334 0.000385653 -9.80328e-05 0.000226692 6.09282e-05 -0.000263988 -0.000746103 -0.000422068 -0.000588022 -0.000911237 -0.00139263 -0.00106937 -0.0012345 -0.00155664 -0.00203922 -0.00171592 -0.00187994 -0.00220185 -0.00268734 -0.00236328 -0.00252591 -0.00284952 -0.00333547 -0.00301141 -0.00317359 -0.00349687 -0.00398398 -0.00365973 -0.00382113 -0.00414453 -0.00463129 -0.00430763 -0.00446818 -0.00479141 -0.00527812 -0.0049547 -0.00511482 -0.00543781 -0.00592469 -0.0056014 -0.00576109 -0.00608365 -0.00656951 -0.0062471 -0.00640606 -0.00672862 -0.0072147 -0.00689211 -0.00705122 -0.00737492 -0.00786757 -0.00754114 -0.00770135 -0.00802558 -0.00852297 -0.00819527 -0.00835328 -0.00867942 -0.00923401 -0.00887849 -0.00903494 -0.00933059 -0.009552 -0.00953395 0.00727056 0.00758078 0.00749219 0.00710712 0.00743078 0.00770484 0.00766089 0.00735067 0.00747812 0.00774181 0.00772852 0.00745445 0.006552 0.00691128 0.00674784 0.00656639 0.00684273 0.00713676 0.00669737 0.00705665 0.00695271 0.00721542 0.00689772 0.00719175 0.00746314 0.00773014 0.00773432 0.00747063 0.00691771 0.00719042 0.00719792 0.00693521 0.00745847 0.00772755 0.00772781 0.0074608 0.00746399 0.00773113 0.00773031 0.00746123 0.00746929 0.00773379 0.00773378 0.00746664 0.00746977 0.0077336 0.00773402 0.00746953 0.00690151 0.00717999 0.00718232 0.00690961 0.00691323 0.00718861 0.00718585 0.00690737 0.00693158 0.00720044 0.00719779 0.00692241 0.00693895 0.00720436 0.00720412 0.00693527 0.0074686 0.00773287 0.00773302 0.00746918 0.00746762 0.00773222 0.00746811 0.00773239 0.0069393 0.00720395 0.00720454 0.00693913 0.00693757 0.0072026 0.00720309 0.00693844 0.0074655 0.00772842 0.00773116 0.00746656 0.00745643 0.00771757 0.00746096 0.00772389 0.00743504 0.00769494 0.00744574 0.00770688 0.00740148 0.00766389 0.00741826 0.00767816 0.00693669 0.0072011 0.00720216 0.00693713 0.00693197 0.0071942 0.00719873 0.00693433 0.00691604 0.00717554 0.00718624 0.00692401 0.0068843 0.00714289 0.00690017 0.00715967 0.00736681 0.00763556 0.00764655 0.00738414 0.00684157 0.00710419 0.00686293 0.00712152 0.0073428 0.00761796 0.00762356 0.00735481 0.00733172 0.00761052 0.00761242 0.00733726 0.00732828 0.0076084 0.0076088 0.00733 0.00732788 0.00760816 0.0076082 0.00732808 0.00732768 0.00760807 0.00760806 0.00732778 0.00732745 0.00760802 0.00760795 0.00732757 0.00732778 0.00760822 0.00760819 0.00732761 0.00732802 0.00760586 0.00760834 0.0073279 0.00731232 0.00758865 0.00759801 0.00732017 0.00726102 0.00753715 0.0075606 0.00729044 0.00720082 0.00744457 0.00723092 0.00750705 0.00680294 0.00707287 0.00708488 0.00682226 0.00677932 0.00705552 0.00706106 0.00679113 0.00676829 0.00704828 0.00705 0.0067738 0.00676706 0.00704747 0.00704767 0.00676767 0.00676669 0.00704719 0.00704728 0.00676687 0.00676534 0.00704639 0.00704651 0.00676601 0.00676356 0.00704567 0.0070455 0.00676445 0.00676377 0.00704589 0.00704577 0.00676366 0.00676459 0.00703845 0.0070463 0.00676418 0.00671752 0.00699304 0.00701492 0.00674105 0.0066039 0.00690236 0.00666531 0.00693246 0.00700613 0.00724891 0.00734722 0.00710348 0.00708015 0.00656092 0.00678352 0.00658241 0.00688087 0.00666128 0.00645214 0.00683839 0.00683706 0.0062038 0.00643639 0.00638236 0.00660497 0.00584975 0.00566068 0.00604638 0.00625552 0.00603062 0.00506972 0.00489252 0.00527066 0.00545974 0.00430368 0.00413589 0.00450949 0.0046867 0.00355637 0.00339147 0.00376223 0.00393002 0.00281517 0.00265036 0.00302087 0.00318577 0.00207116 0.00190701 0.00227836 0.00244317 0.00132986 0.00116578 0.00153636 0.00170051 0.000595614 0.000429808 0.000798656 0.000962738 -0.000133702 -0.000302437 6.51502e-05 0.000230956 -0.000863522 -0.00103499 -0.000667347 -0.000498612 -0.0015975 -0.00177034 -0.00140197 -0.00123051 -0.00233551 -0.00250762 -0.00213934 -0.0019665 -0.00307494 -0.00324856 -0.00287733 -0.00270522 -0.00381577 -0.00398922 -0.00361898 -0.00344535 -0.00455671 -0.00473108 -0.00435969 -0.00418624 -0.00530317 -0.0054744 -0.00510442 -0.00492994 -0.00604938 -0.00621884 -0.00584751 -0.00567627 -0.00679997 -0.00696252 -0.00659414 -0.00642468 -0.00753173 -0.00769569 -0.0073284 -0.00716585 -0.00826381 -0.0084332 -0.00806172 -0.00789777 -0.00907732 -0.00917982 -0.00883996 -0.00867056 -0.00943582 -0.00942293 -0.00917132 -0.00948482 -0.00946993 -0.00912432 -0.0085956 -0.00888346 -0.0084297 -0.00883646 -0.00793254 -0.00826407 -0.00773213 -0.00809817 -0.00914748 -0.00947203 -0.0094729 -0.0091594 -0.00848436 -0.00881592 -0.00853998 -0.00882784 -0.00820845 -0.00915806 -0.00948137 -0.00947732 -0.00915277 -0.00847909 -0.00881857 -0.00881328 -0.00848173 -0.00919177 -0.00950406 -0.00949823 -0.00917491 -0.00920662 -0.00951405 -0.00951148 -0.0091992 -0.00921029 -0.00951649 -0.00951589 -0.00920846 -0.00921031 -0.00951658 -0.0095165 -0.0092103 -0.00921028 -0.00951656 -0.00951657 -0.0092103 -0.00921024 -0.00951681 -0.00951655 -0.00921026 -0.0092128 -0.00951949 -0.00951809 -0.00921152 -0.00922259 -0.00952772 -0.00952438 -0.0092177 -0.00923944 -0.00954066 -0.00953615 -0.00923102 -0.00855726 -0.00887452 -0.00885766 -0.00851818 -0.0085935 -0.00890006 -0.00889264 -0.00857538 -0.00859775 -0.00890402 -0.00890218 -0.00859562 -0.00859773 -0.00890402 -0.00890401 -0.00859774 -0.00859773 -0.008904 -0.00890402 -0.00859773 -0.00859773 -0.00890398 -0.008904 -0.00859773 -0.00859772 -0.00890526 -0.00890398 -0.00859773 -0.00860861 -0.0089156 -0.0089107 -0.00860317 -0.00863016 -0.0089348 -0.00892637 -0.00861938 -0.00723531 -0.00758392 -0.00738352 -0.00701764 -0.00925543 -0.0095521 -0.00954866 -0.00924744 -0.00926207 -0.00955629 -0.00925875 -0.00955542 -0.00925958 -0.00955423 -0.00955505 -0.00926083 -0.00925656 -0.0095548 -0.00955271 -0.00925807 -0.0092581 -0.00955557 -0.00955557 -0.00925733 -0.00926108 -0.00955705 -0.00955705 -0.00925959 -0.00926303 -0.00955803 -0.00955803 -0.00926205 -0.00926232 -0.00955768 -0.00955768 -0.00926267 -0.00926561 -0.00955932 -0.00955932 -0.00926396 -0.00927657 -0.00956115 -0.0095648 -0.00927109 -0.00925451 -0.00955202 -0.00955012 -0.00926554 -0.00927897 -0.00955643 -0.00956425 -0.00926674 -0.00925649 -0.00878074 -0.00865186 -0.00902986 -0.00900738 -0.00819474 -0.00803116 -0.00848774 -0.00835886 -0.0075438 -0.00737925 -0.00770568 -0.00786927 -0.00690239 -0.00673595 -0.00705854 -0.00722309 -0.00625887 -0.00609178 -0.00641419 -0.00658063 -0.00560932 -0.00544372 -0.00576701 -0.0059341 -0.00496058 -0.00479593 -0.00511935 -0.00528495 -0.00431312 -0.00414855 -0.0044722 -0.00463685 -0.00366467 -0.00350007 -0.00382432 -0.00398889 -0.00301424 -0.00285079 -0.00317486 -0.00333946 -0.00236237 -0.00220079 -0.00252486 -0.00268831 -0.00171088 -0.00155176 -0.00187505 -0.00203663 -0.00106116 -0.000903631 -0.0012269 -0.00138602 -0.00041229 -0.000255162 -0.000579196 -0.000736725 0.000236502 0.000393959 6.92346e-05 -8.78941e-05 0.000885599 0.00104179 0.000718508 0.000561051 0.00153093 0.001687 0.00136446 0.00120827 0.00217535 0.00233151 0.00200921 0.00185314 0.00282005 0.00297651 0.00265386 0.0024977 0.00347133 0.00362459 0.00330215 0.00314569 0.00412331 0.00427284 0.00395058 0.00379732 0.00478367 0.00494139 0.00460302 0.00445349 0.00546795 0.00562997 0.00528353 0.00512581 0.00618909 0.00634667 0.00582852 0.00599054 0.00637054 -0.00646674 -0.00685103 -0.00663336 -0.00625806 -0.00865365 -0.00895454 -0.00894655 -0.0086419 -0.00866573 -0.0089639 -0.00896058 -0.00865969 -0.00866344 -0.00896151 -0.00866458 -0.00896276 -0.00865746 -0.00895701 -0.00895852 -0.00866045 -0.00865766 -0.00895788 -0.00895711 -0.00865756 -0.00866353 -0.0089623 -0.00896082 -0.0086606 -0.00867266 -0.00896784 -0.00896687 -0.00866809 -0.00867731 -0.00896981 -0.00897017 -0.00867498 -0.0086694 -0.00896751 -0.00896586 -0.00867336 -0.0086805 -0.00897854 -0.00897306 -0.00867495 -0.00871636 -0.00898544 -0.00899647 -0.00869843 -0.00864029 -0.00895963 -0.0089474 -0.00867833 -0.00871052 -0.00841752 -0.00570155 -0.00608415 -0.00587547 -0.00550236 -0.00495091 -0.00532623 -0.00512704 -0.00475381 -0.00420995 -0.00458043 -0.00438333 -0.00401286 -0.00346902 -0.00383948 -0.00364239 -0.00327198 -0.00272687 -0.00309794 -0.0029009 -0.00253119 -0.00198552 -0.00235619 -0.00216051 -0.00179151 -0.00124784 -0.00161668 -0.00142267 -0.00105568 -0.007902 -0.0077229 -0.00804837 -0.00827114 -0.00819718 -0.00804959 -0.00845677 -0.00841873 -0.00808904 -0.00814311 -0.0084027 -0.00838477 -0.00725175 -0.00707707 -0.00739777 -0.00757687 -0.00760024 -0.00742599 -0.00775112 -0.00789871 -0.00784464 -0.00660829 -0.00643358 -0.00675534 -0.00693002 -0.00594881 -0.00577906 -0.00610384 -0.00627855 -0.00529239 -0.00512649 -0.00545086 -0.0056206 -0.00464329 -0.0044782 -0.00480193 -0.00496784 -0.00399451 -0.00382959 -0.00415381 -0.0043189 -0.00334399 -0.00317912 -0.00350433 -0.00366925 -0.0026891 -0.00252573 -0.00285167 -0.00301654 -0.00203175 -0.00187131 -0.00219706 -0.00236042 -0.00698052 -0.00679441 -0.00711614 -0.00729038 -0.00630173 -0.00612527 -0.00645501 -0.00664112 -0.00562838 -0.00546039 -0.0057886 -0.00596506 -0.0049732 -0.00480824 -0.0051328 -0.00530079 -0.00432563 -0.00416007 -0.00448446 -0.00464942 -0.00367482 -0.00350941 -0.00383467 -0.00400023 -0.00301875 -0.00285392 -0.00318137 -0.00334679 -0.00235616 -0.00219395 -0.00252263 -0.00268745 -0.00137568 -0.00121842 -0.00154328 -0.00170371 -0.00169094 -0.00153331 -0.00186134 -0.00202355 -0.00806109 -0.00807506 -0.0083708 -0.00836525 -0.00809651 -0.0080788 -0.00838296 -0.00838691 -0.00809597 -0.00809624 -0.00838664 -0.00838431 -0.00807481 -0.00808539 -0.00837373 -0.00836917 -0.00805881 -0.00806681 -0.00836117 -0.00835824 -0.00804926 -0.00805404 -0.00835346 -0.00835336 -0.00804618 -0.00804772 -0.00835182 -0.00835481 -0.00805636 -0.00805127 -0.0083599 -0.00836104 -0.00806194 -0.00805915 -0.0083578 -0.00836383 -0.00804694 -0.00805444 -0.00835029 -0.00833855 -0.000723006 -0.000567648 -0.000892083 -0.00104934 -7.26756e-05 8.19132e-05 -0.000397841 -0.000242483 0.000576648 0.000731123 0.000406575 0.000251986 0.00122116 0.00137605 0.00105338 0.000898904 0.00186398 0.00201966 0.00169746 0.00154257 0.00250779 0.00266392 0.00234157 0.00218588 0.00315415 0.00331274 0.0029871 0.00283097 0.00381654 0.00396993 0.00364394 0.00348535 0.00447586 0.00462977 0.00429958 0.0041462 0.00514006 0.00530401 0.00496187 0.00480796 0.00582639 0.00600774 0.00548323 0.00564717 0.0061892 0.00615451 0.00649862 0.00599045 0.00635326 0.00644113 0.00669692 0.00629782 0.00664193 0.00635651 0.00663711 0.00639882 0.00665461 0.0063169 0.0066092 0.0063367 0.0066173 0.00633408 0.00662365 0.00661779 0.00632549 0.00637952 0.00665555 0.00664638 0.0063568 0.00640294 0.00667094 0.00666726 0.00639123 0.00641028 0.00667479 0.00667461 0.00640661 0.00640623 0.0066719 0.00667277 0.00640825 0.00640545 0.00667107 0.00667151 0.00640584 0.00640579 0.00666888 0.00667124 0.00640562 0.00639502 0.00665553 0.00666349 0.0064004 0.00636938 0.00662684 0.0063822 0.00664271 0.00632563 0.0065836 0.00634751 0.00660497 0.00627518 0.00653906 0.00655837 0.00630041 0.00623562 0.00650747 0.00651928 0.0062554 0.00621422 0.00649125 0.00649677 0.00622492 0.00620599 0.00648652 0.00648714 0.0062101 0.0062051 0.00648589 0.00648608 0.00620554 0.00620465 0.006485 0.00648567 0.00620488 0.00619795 0.00648075 0.00648164 0.0062013 0.00619152 0.00647765 0.00647754 0.00619474 0.00619253 0.00647856 0.00647815 0.00619203 0.00620273 0.00646012 0.00648366 0.00619763 0.00607623 0.00634466 0.00639687 0.00613948 0.00585277 0.00621206 0.0059645 0.00623293 0.00603213 0.00544479 0.00564727 0.00564878 0.00582814 0.00525726 -0.000518152 -0.000882995 -0.000690837 -0.000325927 0.000205027 -0.000156563 3.56628e-05 0.000400321 0.000928814 0.000566921 0.000762214 0.00112934 0.00166318 0.001296 0.00149652 0.00186717 0.00240888 0.00203603 0.00224002 0.00261203 -0.00103054 -0.000876772 -0.00120311 -0.00136074 -0.000376597 -0.000224636 -0.000549802 -0.000703567 0.000273091 0.000424869 -5.17531e-05 0.000100208 0.000917658 0.00106941 0.000747153 0.000595375 0.00155952 0.00171175 0.00139034 0.00123859 0.0021997 0.00235374 0.00203184 0.00187961 0.00284752 0.00300084 0.00267765 0.00252361 0.00350848 0.00366251 0.00333131 0.003178 0.00418241 0.00432913 0.00399948 0.00384544 0.00484156 0.00499081 0.00465871 0.00451198 0.00549164 0.00565901 0.00531585 0.0051666 0.00582308 0.00585887 0.00615 0.00567525 0.00600669 0.00610769 0.0031567 0.00278279 0.00298594 0.00335654 0.00389482 0.00352576 0.0037256 0.00409925 0.00465107 0.00427294 0.00447737 0.0048604 0.00504793 0.00535698 0.00483637 0.00523323 0.00560487 0.0057166 0.00565919 0.00550808 0.00593096 0.00586771 0.00560896 0.00563407 0.00590074 0.00590584 0.00560264 0.0056058 0.00589708 0.00589758 0.00561943 0.00561103 0.00590869 0.00590548 0.00563315 0.00562629 0.0059189 0.00591555 0.00563974 0.00563645 0.00592242 0.0059222 0.0056427 0.00564122 0.00592434 0.0059239 0.00564807 0.00564539 0.00593114 0.00592703 0.00566534 0.00565671 0.00595048 0.00593978 0.00570266 0.005684 0.00598892 0.00596914 0.0042317 0.00406326 0.00444138 0.00462668 0.00350452 0.00333061 0.00369967 0.00386811 0.00275357 0.00258123 0.00295513 0.00312904 0.00200105 0.00183212 0.00220497 0.00237731 0.00126292 0.00109587 0.00146305 0.00163199 0.00054359 0.000374309 0.000736202 0.000903256 -0.000171458 -0.000344805 1.67847e-05 0.000186066 -0.000893699 -0.00107077 -0.000705926 -0.000532578 -0.0016293 -0.00180741 -0.00143857 -0.0012615 -0.00237588 -0.00255137 -0.0021807 -0.00200259 -0.0031235 -0.00329626 -0.00292518 -0.00274969 -0.00387062 -0.00404028 -0.00366982 -0.00349706 -0.00461317 -0.00478204 -0.00441156 -0.00424189 -0.00535533 -0.00552844 -0.00515312 -0.00498425 -0.00610979 -0.00628827 -0.00590567 -0.00573256 -0.00690932 -0.00707232 -0.00668803 -0.00650956 -0.00774426 -0.0078384 -0.00748979 -0.00732679 -0.00811431 -0.00811167 -0.00791141 -0.00823434 -0.00819525 -0.00782783 -0.00725336 -0.00758239 -0.00708134 -0.00749881 -0.0064857 -0.00686953 -0.00669751 -0.00629775 -0.00798424 -0.00828887 -0.00827075 -0.00794783 -0.00738758 -0.00768591 -0.00732047 -0.0076495 -0.00681551 -0.00710154 -0.00665061 -0.00703444 -0.00798685 -0.0082923 -0.00829018 -0.00798555 -0.00737137 -0.00767911 -0.0076778 -0.00737947 -0.00674404 -0.0070577 -0.00677978 -0.00706581 -0.00798089 -0.00828931 -0.00828932 -0.00798387 -0.00798445 -0.00829109 -0.00829109 -0.00798267 -0.00798445 -0.00829109 -0.00829109 -0.00798445 -0.00798445 -0.00829109 -0.00829109 -0.00798445 -0.00799076 -0.00829969 -0.00829424 -0.00798761 -0.00801734 -0.00832375 -0.00831297 -0.00800405 -0.00803214 -0.00735678 -0.00766884 -0.00767182 -0.00736407 -0.00671032 -0.00703355 -0.00672718 -0.00704084 -0.00735788 -0.00767117 -0.00766939 -0.00735733 -0.00671562 -0.00703675 -0.0070362 -0.00671297 -0.00737117 -0.00767781 -0.00767781 -0.00736453 -0.00737117 -0.00767781 -0.00767781 -0.00737117 -0.00737045 -0.00768061 -0.00767745 -0.00737081 -0.00739346 -0.0077054 -0.00769211 -0.00738196 -0.00674247 -0.00705682 -0.00705018 -0.00672904 -0.00675789 -0.00706453 -0.00706453 -0.00675018 -0.00675081 -0.00706063 -0.00706099 -0.00675435 -0.00676197 -0.00707772 -0.00706621 -0.00675639 -0.00575878 -0.00612224 -0.00593428 -0.00555705 -0.00618011 -0.00649781 -0.00596944 -0.00633291 -0.00646207 -0.00744029 -0.00774361 -0.00772881 -0.00741688 -0.00745839 -0.00776016 -0.00775266 -0.00744934 -0.0074401 -0.00774823 -0.00744924 -0.00775102 -0.00741454 -0.00773036 -0.00773545 -0.00742732 -0.00680576 -0.00712302 -0.00709961 -0.00678386 -0.00742665 -0.00773796 -0.00773642 -0.0074206 -0.0074451 -0.00775195 -0.00774718 -0.00743588 -0.00746781 -0.00777131 -0.00776331 -0.00745645 -0.00750073 -0.00779835 -0.00778777 -0.00748427 -0.00753761 -0.00781706 -0.00781679 -0.00751917 -0.00752094 -0.00779101 -0.00780873 -0.00752927 -0.00741622 -0.00775263 -0.00773866 -0.00746858 -0.00750823 -0.00719837 -0.00667222 -0.00648697 -0.00682637 -0.00704422 -0.00694121 -0.00680671 -0.00723107 -0.00717872 -0.00700187 -0.00697154 -0.00726141 -0.00726974 -0.00596488 -0.00579663 -0.00613331 -0.00631855 -0.00530232 -0.00513776 -0.00546535 -0.0056336 -0.00465438 -0.00449 -0.00481379 -0.00497835 -0.00400615 -0.00384049 -0.00416589 -0.00433026 -0.0033515 -0.00318512 -0.00351316 -0.00367882 -0.00268679 -0.00252148 -0.00285277 -0.00301915 -0.00201271 -0.00185183 -0.00218444 -0.00234975 -0.00625699 -0.00611094 -0.0064646 -0.0065991 -0.00650225 -0.00637962 -0.00675206 -0.00672173 -0.00561704 -0.00545968 -0.00579096 -0.00593702 -0.00592455 -0.00577079 -0.0062134 -0.00609077 -0.00498294 -0.00481866 -0.00514263 -0.00529999 -0.00532226 -0.0051526 -0.00546965 -0.0056234 -0.00433571 -0.00417093 -0.00449504 -0.00465933 -0.0036866 -0.00351905 -0.00384637 -0.00401115 -0.00302573 -0.00285626 -0.00318861 -0.00335616 -0.00466655 -0.00450113 -0.00482474 -0.0049944 -0.00402257 -0.00385458 -0.00417914 -0.00434456 -0.00337212 -0.00319893 -0.00352936 -0.00369734 -0.00234829 -0.0021805 -0.00251754 -0.00268701 -0.00270114 -0.00252472 -0.00286344 -0.00303663 -0.00133873 -0.00118463 -0.00151483 -0.00167572 -0.00165917 -0.00149895 -0.00183594 -0.00200373 -0.00200834 -0.00183376 -0.00217831 -0.00235474 -0.00693847 -0.00697017 -0.00723804 -0.0072196 -0.0063794 -0.00644083 -0.00665894 -0.00669064 -0.00615197 -0.00688768 -0.00691308 -0.00719421 -0.00717775 -0.00631276 -0.00634608 -0.00662562 -0.00660022 -0.00685422 -0.00687095 -0.00716101 -0.00714966 -0.00681797 -0.00683609 -0.00713153 -0.00712231 -0.0067866 -0.00680228 -0.00710662 -0.00710057 -0.00628442 -0.00629859 -0.00658605 -0.00656932 -0.00675558 -0.00677109 -0.00708506 -0.00709784 -0.0068331 -0.00679434 -0.00714574 -0.0071366 -0.00687638 -0.00685474 -0.00715833 -0.00716738 -0.00684107 -0.00604767 -0.00637899 -0.00639585 -0.00611389 -0.00604181 -0.00637871 -0.00637607 -0.00604474 -0.00611269 -0.00642758 -0.00641415 -0.00607725 -0.006128 -0.00644295 -0.00643524 -0.00612034 -0.00613232 -0.00644156 -0.00644511 -0.00613016 -0.00613471 -0.00644834 -0.00644276 -0.00613352 -0.00615753 -0.00648164 -0.00645975 -0.00614612 -0.00503481 -0.00539679 -0.00519507 -0.00482399 -0.00548924 -0.00583468 -0.00526202 -0.00562401 -0.00576845 -0.00428898 -0.00466189 -0.00445107 -0.0040798 -0.00475523 -0.00512223 -0.00489502 -0.0045221 -0.00353102 -0.00391 -0.00370082 -0.00332726 -0.00277539 -0.0031532 -0.00294944 -0.00257564 -0.00201154 -0.00239346 -0.00219371 -0.00182042 -0.00126264 -0.00163709 -0.00144597 -0.00107817 -0.000535677 -0.000899157 -0.000714688 -0.000353567 0.000174573 -0.000180552 1.55731e-06 0.000359081 0.000879155 0.000526864 0.000711373 0.00107104 0.00158924 0.0012342 0.00179515 0.00142608 0.00232827 0.00195875 0.00216466 0.00254092 0.0030798 0.00270403 0.00291668 0.00329216 -0.0053085 -0.00567808 -0.00539887 -0.00503186 -0.00567516 -0.00548631 -0.0057995 -0.00576406 -