<?xml version="1.0"?>
<VTKFile byte_order="LittleEndian" type="UnstructuredGrid" version="0.1">
<UnstructuredGrid>
<Piece NumberOfCells="2042" NumberOfPoints="4205">
<PointData>
<DataArray Name="Warping_X" format="ascii" type="Float64">
0.00964388 -0.00939878 -0.0278171 -0.045611 -0.0627806 -0.0793259 -0.0952468 -0.110543 -0.125216 -0.139263 -0.152687 -0.165486 -0.177661 -0.189211 -0.200138 -0.210439 -0.220117 -0.22917 -0.237599 -0.245403 -0.252583 -0.259139 -0.26507 -0.270377 -0.27506 -0.279118 -0.282552 -0.285361 -0.287547 -0.289107 -0.290044 -0.290356 -0.290044 -0.289107 -0.287547 -0.285361 -0.282552 -0.279118 -0.27506 -0.270377 -0.26507 -0.259139 -0.252583 -0.245403 -0.237599 -0.22917 -0.220117 -0.210439 -0.200138 -0.189211 -0.177661 -0.165486 -0.152687 -0.139264 -0.125216 -0.110543 -0.0952469 -0.0793259 -0.0627807 -0.0456111 -0.0278171 -0.00939878 0.00964388 0.0294256 0.0484939 0.0668488 0.0844902 0.101418 0.117633 0.133134 0.147922 0.161996 0.175357 0.188004 0.199938 0.211158 0.221665 0.231459 0.240539 0.248906 0.256559 0.263499 0.269726 0.275239 0.280038 0.284124 0.287497 0.290156 0.292102 0.293335 0.293854 0.293659 0.292751 0.29113 0.288795 0.285747 0.281985 0.27751 0.272321 0.26642 0.259804 0.252475 0.244433 0.235677 0.226208 0.216026 0.205129 0.19352 0.181197 0.168161 0.154411 0.139948 0.124771 0.108881 0.0922776 0.0749606 0.0569302 0.0381864 0.0187291 -0.00144158 -0.0223257 -0.0441364 -0.0651241 -0.0852887 -0.10463 -0.123149 -0.140844 -0.157717 -0.173766 -0.188992 -0.203396 -0.216976 -0.229733 -0.241667 -0.252778 -0.263066 -0.272531 -0.281173 -0.288992 -0.295988 -0.302161 -0.307511 -0.312038 -0.315741 -0.318622 -0.32068 -0.321914 -0.322326 -0.321914 -0.32068 -0.318622 -0.315741 -0.312038 -0.307511 -0.302161 -0.295988 -0.288992 -0.281173 -0.272531 -0.263066 -0.252778 -0.241667 -0.229733 -0.216976 -0.203396 -0.188992 -0.173766 -0.157717 -0.140844 -0.123149 -0.10463 -0.0852886 -0.065124 -0.0441363 -0.0223256 -0.00393492 0.0139048 0.0311936 0.0479314 0.0641183 0.0797542 0.0948392 0.109373 0.123356 0.136788 0.149669 0.161999 0.173778 0.185007 0.195684 0.20581 0.215386 0.22441 0.232883 0.240806 0.248177 0.254997 0.261267 0.266986 0.272153 0.27677 0.280835 0.28435 0.287314 0.289727 0.291588 0.292899 0.293659 0.293868 0.293526 0.292633 0.291189 0.289194 0.286648 0.283551 0.279903 0.275705 0.270955 0.265654 0.259802 0.2534 0.246446 0.238941 0.230886 0.222279 0.213122 0.203413 0.193154 0.182344 0.170982 0.15907 0.146607 0.133592 0.120027 0.105911 0.091244 0.0760259 0.0602568 0.0439368 0.0270658 0.010452 -0.00854486 0.0293595 0.0100668 -0.0234487 -0.00252044 -0.0441562 -0.0229117 -0.0264967 -0.0457137 -0.00646748 -0.0244708 0.00793134 0.025823 -0.00984976 0.00877602 -0.00248779 -0.0142867 0.0224686 0.00550471 0.00342951 0.0299392 -0.00975011 0.0108849 -0.0141976 -0.0382847 -0.00209938 -0.020842 0.0311515 0.0534364 0.0197435 0.0374201 0.0265514 0.012272 0.0528872 0.0369895 0.0578277 0.0424541 0.0833604 0.0685538 0.0896064 0.0740061 0.112991 0.0993021 0.118172 0.104185 0.139893 0.127326 0.143052 0.131237 0.164169 0.152724 0.165379 0.154817 0.185405 0.175061 0.184849 0.175389 0.20444 0.195198 0.202116 0.193758 0.221271 0.213131 0.217179 0.209923 0.235899 0.22886 0.230038 0.223884 0.248323 0.242386 0.240694 0.235642 0.258543 0.253708 0.249146 0.245195 0.266559 0.262826 0.255394 0.252545 0.272371 0.26974 0.259961 0.257942 0.276254 0.274714 0.262409 0.261455 0.277973 0.27753 0.26265 0.262802 0.277484 0.27814 -0.0166311 -0.00456543 -0.0395774 -0.0221049 0.0357969 0.0233823 0.0599751 0.0420149 -0.051423 -0.0377343 -0.0778342 -0.0581277 0.0358552 0.0638265 0.0199457 0.0461441 -0.0442386 -0.06955 -0.0294802 -0.0533039 0.0574313 0.0814976 0.0445305 0.0665474 0.260536 0.261867 0.274714 0.27647 0.0717883 0.0980656 0.0541846 0.0818168 -0.0778419 -0.101365 -0.0613584 -0.0863743 0.0844537 0.108853 0.0711949 0.094981 0.102695 0.128338 0.0875966 0.113514 0.13138 0.156081 0.117394 0.142685 0.255962 0.258519 0.269608 0.272461 0.157641 0.181185 0.144874 0.169223 0.18059 0.203201 0.169478 0.192671 0.200336 0.222186 0.190822 0.213085 0.217123 0.238265 0.209087 0.230592 0.231003 0.251464 0.224419 0.245217 0.24206 0.261826 0.236887 0.257004 0.250386 0.269398 0.246577 0.266001 0.256098 0.274239 0.253596 0.272266 0.259115 0.276307 0.257962 0.27576 0.259158 0.275459 0.259495 0.27634 -0.106782 -0.12957 -0.0926271 -0.115831 -0.133252 -0.155293 -0.120331 -0.142805 -0.15706 -0.178436 -0.145468 -0.167197 0.11176 0.135264 0.0983747 0.122486 -0.178414 -0.199105 -0.168049 -0.189115 -0.197263 -0.217271 -0.188151 -0.20853 -0.213508 -0.232885 -0.205699 -0.225394 -0.227135 -0.245939 -0.220635 -0.239699 -0.238348 -0.256546 -0.233055 -0.251556 -0.246742 -0.264476 -0.242859 -0.260736 -0.252953 -0.27008 -0.250158 -0.267587 -0.256975 -0.273345 -0.255276 -0.2721 -0.258639 -0.274183 -0.258121 -0.274188 -0.257666 -0.27245 -0.258469 -0.273708 0.249163 0.252833 0.262288 0.266237 0.138534 0.160305 0.125435 0.148642 0.240185 0.244945 0.252775 0.257823 0.161981 0.182568 0.150543 0.172018 0.229054 0.234892 0.241085 0.247231 0.182353 0.202188 0.172446 0.192744 0.215736 0.222667 0.227198 0.234443 0.200187 0.219438 0.191544 0.211094 0.208234 -0.0548309 -0.0795847 -0.0409648 -0.0598817 -0.043468 -0.0303014 -0.0529212 -0.0692048 0.06553 0.0509645 0.0748187 0.091409 -0.0842096 -0.068162 -0.0942084 -0.112337 -0.253961 -0.268101 -0.270609 -0.256126 -0.247621 -0.261184 -0.26494 -0.251104 -0.23865 -0.251701 -0.256705 -0.243447 -0.227378 -0.239822 -0.246075 -0.233327 -0.213811 -0.225549 -0.23305 -0.220906 -0.197775 -0.208794 -0.217542 -0.206105 -0.178505 -0.189161 -0.19917 -0.188464 -0.156055 -0.166683 -0.177961 -0.167613 -0.129958 -0.14112 -0.153676 -0.143349 -0.10069 -0.112714 -0.126544 -0.115662 -0.071468 -0.0831134 -0.0981862 -0.0863847 -0.0577428 0.256049 0.271602 0.273912 0.257961 0.249916 0.264806 0.26854 0.253337 0.241317 0.255356 0.260513 0.245968 0.229578 0.242904 0.249487 0.235804 0.214985 0.227597 0.235607 0.222638 0.197538 0.209436 0.218873 0.206618 0.177237 0.188422 0.199286 0.187744 0.154083 0.164554 0.176845 0.166017 0.127045 0.137304 0.151037 0.140937 0.0982836 0.107782 0.122943 0.113022 0.0822652 -0.119762 -0.1024 -0.130106 -0.146586 -0.149915 -0.135243 -0.161624 -0.176465 -0.177412 -0.164071 -0.190178 -0.203377 -0.20208 -0.19016 -0.215679 -0.227229 -0.22339 -0.213146 -0.237849 -0.247754 -0.241762 -0.23299 -0.256918 -0.265175 -0.256539 -0.249562 -0.272535 -0.279146 -0.268616 -0.262991 -0.285166 -0.290129 -0.277029 -0.273229 -0.29431 -0.297632 -0.28244 -0.280142 -0.300312 -0.301992 -0.284681 -0.283966 -0.303083 -0.303123 -0.283699 -0.284595 -0.302597 -0.300997 -0.279248 -0.281881 -0.298729 -0.295486 -0.271004 -0.275538 -0.291312 -0.286422 -0.258866 -0.265349 -0.280293 -0.273755 -0.243257 -0.251473 -0.265888 -0.257704 -0.224572 -0.234327 -0.248302 -0.238471 -0.202891 -0.21415 -0.227584 -0.216099 -0.178321 -0.191035 -0.203794 -0.190646 -0.149547 -0.16438 -0.17626 -0.161432 -0.115739 -0.133087 -0.144538 -0.128032 -0.0843706 -0.10043 -0.112404 -0.0942884 -0.0699486 0.00724073 0.0108238 -0.0240238 -0.0287359 -0.0293313 -0.0418222 -0.016246 -0.0016244 -0.0568484 0.0026456 -0.0126701 0.0147036 0.0303641 0.040764 0.0220248 0.0653696 0.0495227 0.0745429 0.0583734 0.0961649 0.0819343 0.102008 0.0885772 0.122672 0.109954 0.125517 0.114051 0.145262 0.134465 0.146181 0.136129 0.165328 0.155638 0.164414 0.155574 0.183078 0.17449 0.180401 0.172683 0.198603 0.191117 0.194178 0.187565 0.211921 0.205537 0.205754 0.200241 0.223037 0.217755 0.215159 0.210731 0.231967 0.227785 0.222485 0.219094 0.238758 0.235675 0.22792 0.225473 0.243756 0.241522 0.231705 0.230081 0.24688 0.245707 0.233395 0.232818 0.247784 0.247856 0.23264 0.233286 0.24643 0.247527 0.229276 0.231225 0.242466 0.244784 0.223575 0.226693 0.239646 0.236218 0.215697 0.219903 0.232307 0.227793 0.205582 0.210908 0.222758 0.217171 0.193319 0.19972 0.21106 0.204382 0.178984 0.186422 0.197233 0.189443 0.162354 0.170938 0.172213 0.181141 0.143355 0.15313 0.162726 0.152532 0.121012 0.132473 0.141368 0.129637 0.0940994 0.107862 0.116178 0.102778 0.061255 0.0783602 0.0867119 0.0730027 0.0334434 0.0479927 0.0587814 0.045182 0.00770054 0.0208387 0.032472 0.0191923 -0.00422052 -0.0178355 -0.0566944 -0.0698306 -0.043027 -0.0272954 -0.0856883 -0.0089193 -0.0324174 -0.0032832 0.0156913 0.0300828 0.0109371 0.0525513 0.0353088 0.0604778 0.0455993 0.0813556 0.0676773 0.0866048 0.0741382 0.105879 0.0941655 0.10862 0.0978977 0.127218 0.116925 0.127865 0.118521 0.145957 0.136876 0.144816 0.136617 0.162425 0.154468 0.159553 0.15246 0.176682 0.16983 0.172085 0.166094 0.188736 0.182985 0.18244 0.177537 0.198616 0.19395 0.190727 0.186856 0.206423 0.202798 0.197184 0.194227 0.21237 0.209695 0.202005 0.199864 0.216675 0.214833 0.205002 0.203771 0.218231 0.219026 0.20563 0.205581 0.218971 0.219392 0.203576 0.204867 0.21627 0.217984 0.199036 0.201572 0.211153 0.214031 0.192151 0.195857 0.207734 0.203773 0.183113 0.187897 0.194198 0.199274 0.171923 0.177786 0.188621 0.182473 0.15852 0.16549 0.175788 0.168603 0.142907 0.150981 0.16081 0.152482 0.125276 0.134359 0.14368 0.134171 0.10505 0.115807 0.124448 0.113291 0.0805084 0.0934729 0.100631 0.0871899 0.0476724 0.0647844 0.0710916 0.0543339 0.00753079 0.0283148 0.034567 0.0201792 -0.0176248 -0.00474545 0.00788026 -0.00522808 -0.0302629 -0.044425 -0.0476605 -0.0329462 -0.0593086 -0.0740413 -0.0199446 -0.0823293 -0.0653685 -0.091332 -0.106022 -0.112697 -0.0978924 -0.134254 -0.121178 -0.137897 -0.125657 -0.146831 -0.158069 -0.158667 -0.148902 -0.168719 -0.178356 -0.176289 -0.168062 -0.186874 -0.194906 -0.191068 -0.18399 -0.20228 -0.209077 -0.203578 -0.197635 -0.215321 -0.220967 -0.213793 -0.208997 -0.226067 -0.230559 -0.221597 -0.218007 -0.234456 -0.237635 -0.226701 -0.224462 -0.240178 -0.24204 -0.228884 -0.228109 -0.243118 -0.243617 -0.228111 -0.228812 -0.243209 -0.24239 -0.224869 -0.226803 -0.24075 -0.238749 -0.219595 -0.222546 -0.236103 -0.233 -0.21235 -0.216288 -0.229381 -0.225179 -0.202747 -0.207863 -0.220384 -0.214776 -0.190508 -0.196943 -0.208664 -0.201845 -0.175596 -0.183366 -0.194394 -0.186268 -0.157942 -0.167083 -0.177443 -0.168016 -0.13758 -0.148075 -0.157834 -0.147154 -0.114819 -0.126512 -0.135774 -0.123867 -0.0897621 -0.102603 -0.111341 -0.0981052 -0.0616286 -0.076015 -0.0840394 -0.0695624 -0.0312483 -0.0467606 -0.0543859 -0.0376017 0.0107228 -0.0106318 -0.0165581 -0.00143197 0.0229833 0.0380054 0.006719 0.0273173 0.00712417 -0.0138894 0.0416981 0.0609467 0.0449862 0.0245017 0.0687714 0.0871512 0.0745375 0.0555412 -0.0306975 -0.0123642 -0.0327313 -0.0529549 0.00514709 0.0232056 -0.0126235 0.0059205 0.0346008 0.0515326 0.0201453 0.0380828 0.0892057 0.107097 0.097346 0.079262 0.0542955 0.0715915 0.0613708 0.0446987 0.107616 0.125117 0.11629 0.0986747 0.124455 0.141347 0.133529 0.116301 0.139246 0.155448 0.148734 0.13212 0.151647 0.167244 0.161637 0.145715 0.0727268 0.0900104 0.0807903 0.0637601 0.090743 0.107446 0.0990154 0.0819948 0.10729 0.123124 0.115721 0.0992877 0.121213 0.13629 0.130082 0.114524 0.161783 0.17683 0.172299 0.156982 0.169759 0.184259 0.166035 0.180804 0.132586 0.147044 0.14197 0.12717 0.141643 0.155559 0.151565 0.13738 0.175547 0.189428 0.187139 0.172915 0.178908 0.19214 0.177489 0.191085 0.1796 0.192175 0.179516 0.19245 0.177612 0.18968 0.178871 0.191134 0.148575 0.161919 0.159018 0.145372 0.15322 0.165926 0.164232 0.151158 0.155284 0.167309 0.166938 0.154512 0.154572 0.165963 0.155189 0.16692 0.173437 0.185173 0.187543 0.175792 0.151277 0.162223 0.153188 0.16427 0.167603 0.179018 0.182214 0.17079 0.160186 0.17116 0.175277 0.164166 0.150919 0.161347 0.1665 0.155826 0.13957 0.149407 0.155649 0.145519 0.12602 0.135263 0.142608 0.13307 0.110258 0.118906 0.127359 0.118415 0.0922968 0.100305 0.109903 0.101553 0.0719906 0.0791515 0.090128 0.0824233 0.0482629 0.0545321 0.06725 0.0604171 0.0198573 0.024844 0.0399578 0.0347233 -0.0111006 -0.0100451 0.00467541 0.00926159 0.146027 0.156671 0.159555 0.148918 0.139267 0.149573 0.153258 0.142917 0.130877 0.14074 0.145354 0.135343 0.120652 0.129952 0.13561 0.12604 0.10826 0.116981 0.12374 0.114731 0.0936009 0.101769 0.109635 0.101206 0.0767251 0.084349 0.0933147 0.0854389 0.0577316 0.0647012 0.0748371 0.0675041 0.0364012 0.0421918 0.0540193 0.0473461 0.0100491 0.0151781 0.0289561 0.0235202 -0.0211037 -0.0162735 -0.00489314 -0.000892025 -0.0521322 -0.054389 -0.0308359 -0.0313133 -0.0772642 -0.048088 -0.050089 -0.0343728 -0.0298745 -0.0975218 -0.123375 -0.0742433 -0.106451 -0.0862903 -0.0914822 -0.0671121 -0.0696943 -0.129732 -0.153843 -0.139459 -0.114121 -0.107539 -0.155285 -0.178863 -0.166596 -0.142964 -0.178354 -0.201215 -0.190422 -0.167259 -0.198618 -0.220687 -0.211402 -0.188904 -0.216498 -0.237447 -0.229704 -0.207969 -0.231276 -0.250926 -0.244918 -0.224301 -0.241634 -0.260238 -0.256167 -0.236867 -0.247516 -0.265406 -0.263217 -0.244979 -0.249563 -0.266917 -0.266451 -0.248938 -0.248362 -0.26519 -0.26633 -0.249362 -0.24407 -0.260332 -0.263056 -0.24662 -0.236627 -0.252393 -0.256624 -0.240757 -0.225998 -0.241039 -0.247097 -0.231723 -0.212301 -0.226793 -0.23421 -0.219561 -0.195882 -0.209405 -0.218614 -0.204503 -0.175909 -0.18876 -0.19945 -0.186313 -0.153256 -0.165109 -0.177483 -0.165 -0.126298 -0.137867 -0.151672 -0.140199 -0.0978276 -0.108561 -0.123696 -0.112464 -0.0676957 -0.0757821 -0.0935825 -0.0831618 -0.0241072 -0.0374492 -0.0540128 -0.0463948 -0.0106928 0.00565522 0.0205008 0.0459457 0.0279964 -0.0013654 -0.0232833 -0.00157625 -0.0453523 -0.0236975 -0.0477422 -0.0358294 -0.0726129 -0.0574611 0.0518753 0.0770633 0.0615975 0.0365459 0.00245723 0.0269274 -0.0101207 0.0112133 -0.0226818 0.0819531 0.10645 0.0921003 0.0672665 0.0318543 0.0566653 0.0416005 0.0174778 0.111128 0.134184 0.121062 0.0969121 0.136321 0.158259 0.146796 0.124096 0.15772 0.178832 0.168969 0.147384 0.175913 0.196322 0.187937 0.167175 0.191206 0.210908 0.203977 0.183916 0.203633 0.222649 0.21713 0.197776 0.213329 0.231659 0.227508 0.208836 0.220566 0.238137 0.235297 0.217302 0.225345 0.242041 0.240552 0.223312 0.0652024 0.0879629 0.0733939 0.0489111 0.0934609 0.1147 0.102121 0.079719 0.116665 0.136997 0.126311 0.105438 0.136212 0.155867 0.146778 0.126795 0.152906 0.171861 0.16422 0.144916 0.166747 0.184995 0.178787 0.160183 0.177733 0.195333 0.190494 0.172597 0.186398 0.203284 0.199682 0.182422 0.192757 0.208855 0.206494 0.189938 -0.075477 -0.0619727 -0.0863837 -0.100715 0.227226 0.243011 0.243009 0.226644 0.225752 0.240724 0.226846 0.242293 0.220965 0.235264 0.238339 0.223713 0.213339 0.227145 0.231457 0.217505 0.203138 0.216178 0.222055 0.208591 0.190153 0.202393 0.209694 0.197 0.174172 0.18568 0.19441 0.182521 0.155128 0.166005 0.176165 0.165011 0.133506 0.14362 0.155208 0.144675 0.109248 0.117992 0.131514 0.12174 0.0794042 0.0886539 0.103067 0.0947118 0.0502457 0.0577334 0.0741242 0.0651808 0.0309218 0.00929234 -0.0107941 0.0296612 0.00999997 -0.0172982 -0.0392814 -0.00425954 -0.0240894 -0.0472689 -0.0683465 -0.0542821 -0.0326011 -0.0731666 -0.0938207 -0.0812832 -0.0605263 -0.0972843 -0.117263 -0.105876 -0.085536 -0.119435 -0.138525 -0.128342 -0.108676 -0.138704 -0.156991 -0.14816 -0.129385 -0.155043 -0.172619 -0.165155 -0.147187 -0.168565 -0.185499 -0.17937 -0.162119 -0.17934 -0.195684 -0.190873 -0.17427 -0.18765 -0.203455 -0.199829 -0.183814 -0.19393 -0.209225 -0.206598 -0.191108 -0.198456 -0.213109 -0.211509 -0.196509 -0.200907 -0.21473 -0.214366 -0.199997 -0.20057 -0.213481 -0.214588 -0.201054 -0.196951 -0.209123 -0.211685 -0.199077 -0.190286 -0.201887 -0.205795 -0.193931 -0.181117 -0.192192 -0.197307 -0.186013 -0.169689 -0.180221 -0.186487 -0.175715 -0.155746 -0.165853 -0.173263 -0.163036 -0.139476 -0.149174 -0.157743 -0.14793 -0.120751 -0.129176 -0.139856 -0.130441 -0.0982895 -0.105368 -0.117979 -0.109872 -0.0702249 -0.0761649 -0.084647 -0.0913589 -0.0503517 -0.106165 -0.0912634 -0.116021 -0.129547 0.196332 0.211588 0.21068 0.194906 0.196458 0.210919 0.21168 0.196753 0.193052 0.206824 0.195107 0.20923 0.186685 0.199826 0.203646 0.190217 0.177797 0.190281 0.195392 0.182592 0.16634 0.178063 0.184567 0.172422 0.15216 0.16299 0.170991 0.159606 0.134632 0.144706 0.154243 0.143762 0.113526 0.123328 0.134165 0.124447 0.0910639 0.0999742 0.112125 0.102644 0.0669732 0.0730742 0.0879657 0.0793681 0.0319443 0.0408645 0.0554952 0.0498677 0.020911 0.00744823 -0.131308 -0.119175 -0.142064 -0.153433 -0.151866 -0.142009 -0.163658 -0.173671 -0.169467 -0.161078 -0.182429 -0.190669 -0.184674 -0.177483 -0.198248 -0.205117 -0.197314 -0.191407 -0.211427 -0.216755 -0.206919 -0.202528 -0.221555 -0.225286 -0.213297 -0.210516 -0.228476 -0.230627 -0.00532148 -0.0261507 -0.0111496 0.0129051 0.0304017 0.012674 0.0485459 0.0311831 0.0498387 0.0403948 0.0581927 0.0702825 -0.0317221 -0.0522707 -0.0392901 -0.0188381 0.0086349 -0.011362 0.00189159 0.0192619 0.0292409 -0.0570247 -0.0769781 -0.0648998 -0.0446839 -0.0815534 -0.100327 -0.0892506 -0.0696145 -0.102774 -0.120577 -0.110942 -0.0924868 -0.120687 -0.137707 -0.129531 -0.112047 -0.135645 -0.151949 -0.145176 -0.128482 -0.147709 -0.163367 -0.157965 -0.141994 -0.157148 -0.172236 -0.168071 -0.15275 -0.164365 -0.178974 -0.17584 -0.161081 -0.0162057 -0.0364271 -0.0237318 -0.00407327 -0.0441704 -0.0626943 -0.0504342 -0.0305304 -0.0678932 -0.0851711 -0.0745681 -0.056371 -0.0873746 -0.103868 -0.0949109 -0.0779558 -0.103986 -0.11966 -0.112172 -0.0959948 -0.117348 -0.132373 -0.126324 -0.110985 -0.12807 -0.142451 -0.137715 -0.123032 -0.136313 -0.150171 -0.146559 -0.132521 -0.169869 -0.183981 -0.181743 -0.16744 -0.142613 -0.156057 -0.153328 -0.139795 0.0717562 0.0611087 0.0811861 0.092478 0.096065 0.0842887 0.104627 0.115203 0.115669 0.106245 0.124979 0.133767 0.130995 0.123694 0.14139 0.148505 0.143546 0.137627 0.15475 0.160499 0.153517 0.148885 0.16546 0.169918 0.160911 0.157563 0.173598 0.17679 0.166086 0.163842 0.179371 0.181092 0.168311 0.16755 0.182161 0.182189 0.166737 0.167889 0.181339 0.179592 -0.173705 -0.187127 -0.185938 -0.172106 -0.17516 -0.187698 -0.174749 -0.187899 -0.173624 -0.185138 -0.186966 -0.174708 -0.16806 -0.179021 -0.182361 -0.171154 -0.159941 -0.170374 -0.174964 -0.16431 -0.149494 -0.159433 -0.165155 -0.155028 -0.137107 -0.146274 -0.153255 -0.143614 -0.121254 -0.130198 -0.138356 -0.129509 -0.10367 -0.112043 -0.121439 -0.112788 -0.0839887 -0.0909969 -0.102249 -0.0941596 -0.0608943 -0.0654729 -0.0727942 -0.0794878 -0.0461901 -0.0267279 -0.0111412 -0.0437126 -0.0286732 0.00363664 0.0189628 -0.0114512 0.00437894 0.0199138 0.0369337 0.0119696 0.0270513 0.0375194 0.0549452 0.0289405 0.0456847 0.0565882 0.073497 0.0644653 0.0473057 0.0756371 0.0913129 0.0830349 0.0663917 0.0916305 0.106279 0.0993148 0.0839173 0.104606 0.118454 0.112767 0.0983976 0.114676 0.128014 0.123484 0.109909 0.122715 0.135498 0.132032 0.118961 0.128638 0.140786 0.138461 0.125938 0.131991 0.143499 0.142454 0.130572 0.132669 0.143489 0.132588 0.143816 0.130541 0.140779 0.131864 0.142386 0.126052 0.135902 0.138486 0.128558 0.119877 0.129424 0.132773 0.12323 0.112265 0.121415 0.125588 0.11634 0.102981 0.111657 0.116754 0.107895 0.0917315 0.0998354 0.106017 0.0976316 0.0782812 0.0857818 0.0930954 0.0852823 0.0623092 0.0693526 0.0777765 0.0705733 0.0441662 0.0507781 0.0602636 0.0535145 0.0242227 0.0301444 0.0407948 0.0344683 0.00223572 0.00603101 0.0191437 0.0135081 -0.0293473 -0.0250167 -0.00988197 -0.0132447 -0.0669014 -0.0574384 -0.0478424 -0.0439793 -0.0760291 -0.11048 -0.119907 -0.0885483 -0.0985017 -0.132702 -0.216486 -0.21529 -0.232223 -0.232829 -0.21664 -0.216954 -0.232907 -0.231897 -0.21342 -0.215422 -0.230276 -0.227368 -0.205722 -0.209976 -0.22348 -0.218358 -0.192631 -0.199593 -0.211736 -0.204418 -0.147423 -0.160373 -0.158501 -0.145344 -0.150412 -0.162603 -0.161926 -0.149237 -0.150527 -0.161904 -0.150785 -0.162713 -0.146914 -0.15733 -0.160123 -0.149032 -0.139886 -0.149755 -0.153822 -0.143709 -0.1304 -0.139784 -0.145015 -0.13545 -0.118842 -0.127805 -0.134019 -0.124936 -0.104637 -0.112784 -0.120728 -0.112067 -0.0871852 -0.0952462 -0.104084 -0.0962518 -0.068519 -0.0760702 -0.0859669 -0.0781776 -0.0489514 -0.0547786 -0.0663571 -0.05905 -0.0381662 -0.0154323 -0.00614464 -0.0321108 -0.0209139 0.00218508 -0.174736 -0.1841 -0.195368 -0.186493 -0.155335 -0.165443 -0.176721 -0.166642 -0.134709 -0.145451 -0.156309 -0.144806 -0.123066 -0.0600425 -0.114712 -0.102595 -0.0634245 -0.0450759 -0.0280698 -0.0439293 -0.0130943 -0.0287109 -0.00842667 -0.0180148 0.00770684 -0.00328433 0.0120701 0.00208675 0.0279265 0.0179536 0.0317985 0.0222145 0.0468693 0.0378088 0.0492273 0.0407957 0.0635734 0.0556041 0.064061 0.0569241 0.0777188 0.0710079 0.0764593 0.0705369 0.0895437 0.0839347 0.0866716 0.0818385 0.099289 0.0946682 0.095078 0.0911431 0.107295 0.10352 0.102038 0.0988211 0.113861 0.110816 -0.114488 -0.134664 -0.124382 -0.105214 -0.133492 -0.153839 -0.1442 -0.124387 -0.154871 -0.173522 -0.164671 -0.144595 -0.171421 -0.188378 -0.181908 -0.163566 -0.181458 -0.19726 -0.193448 -0.176848 -0.185956 -0.201116 -0.199511 -0.184094 -0.186831 -0.201471 -0.201539 -0.186776 -0.184754 -0.198832 -0.200414 -0.186183 -0.179557 -0.193035 -0.196217 -0.182561 -0.170827 -0.18385 -0.188653 -0.175609 -0.159011 -0.171604 -0.177937 -0.165338 -0.144541 -0.156747 -0.164384 -0.152195 -0.128239 -0.139793 -0.148646 -0.136803 -0.110214 -0.120525 -0.130865 -0.119638 -0.0890648 -0.0974274 -0.110043 -0.100064 -0.0603022 -0.0677135 -0.0831049 -0.0751629 -0.0216816 -0.034354 -0.0484342 -0.0415089 -0.00998871 0.0048275 0.0197843 0.0422882 0.0256642 -0.000511892 -0.0195895 -0.000174552 -0.0397605 -0.0206167 -0.050882 -0.0356766 -0.0554864 -0.0698459 0.0523137 0.0726999 0.0586151 0.0364669 0.0152094 0.0335603 -0.00181571 0.0174455 -0.0171371 -0.00116569 -0.033891 -0.0183357 0.0769528 0.0966193 0.0850279 0.0650095 0.0394452 0.0579924 0.0457099 0.0276769 0.00343368 0.021218 -0.0065758 0.00911334 0.0977361 0.116778 0.107004 0.0877037 0.116009 0.134265 0.125918 0.107229 0.131277 0.148819 0.141899 0.124 0.14369 0.160519 0.155025 0.13784 0.153606 0.169802 0.165485 0.149011 0.161543 0.176953 0.173804 0.157937 0.164509 0.0606745 0.0789997 0.068609 0.0504003 0.0241275 0.0421787 0.0140858 0.031538 0.0800424 0.0978218 0.0886859 0.0707072 0.0447077 0.0621637 0.0524598 0.0347532 0.0973498 0.11412 0.106487 0.0890551 0.11119 0.127247 0.121041 0.104627 0.122328 0.137764 0.132822 0.11713 0.131446 0.146287 0.142355 0.127252 0.0641729 0.0805586 0.0719095 0.0548073 0.0802335 0.095519 0.0885988 0.0725687 0.0926694 0.107297 0.10174 0.0868274 0.102777 0.116894 0.112376 0.0980981 -0.0711156 -0.0613865 -0.0798512 -0.0905139 -0.0342577 -0.025983 -0.0525835 -0.042305 -0.0154925 0.138649 0.152503 0.149945 0.135412 0.141736 0.154829 0.154082 0.140574 0.140306 0.152986 0.14138 0.15412 0.135859 0.148165 0.150757 0.138419 0.11106 0.124635 0.121094 0.107282 0.130135 0.141613 0.145333 0.133349 0.121797 0.132465 0.137484 0.126322 0.110747 0.12067 0.126988 0.11663 0.0973126 0.106304 0.11401 0.104385 0.0809818 0.0883739 0.0981965 0.0895109 0.0582351 0.0648497 0.0770211 0.0700138 0.0273802 0.0382969 0.0494117 0.0432405 0.018333 0.00577958 -0.00727634 -0.0255607 -0.0116021 0.00965116 0.0245415 0.0088497 0.0412055 0.0259524 0.0493803 0.0373304 0.053726 0.0650499 -0.0344782 -0.0510274 -0.0391939 -0.0212499 -0.0553192 -0.0711815 -0.0614466 -0.0452279 -0.07308 -0.0883647 -0.0800592 -0.0645144 -0.0881825 -0.102609 -0.0959104 -0.0809464 -0.100306 -0.114034 -0.108653 -0.0945656 -0.109769 -0.122881 -0.118746 -0.105369 -0.116962 -0.129612 -0.126472 -0.113707 -0.00439675 -0.0192707 -0.00578163 0.00972969 0.0216319 0.00877737 0.035381 0.0230725 -0.0249113 -0.0399398 -0.0295398 -0.0149609 0.00421408 -0.0101597 0.0126779 0.000101399 -0.0433405 -0.0580373 -0.0491547 -0.0344275 -0.0140898 -0.028531 -0.0192931 -0.00520977 -0.0601051 -0.0739814 -0.0664238 -0.0520369 -0.0736935 -0.0868457 -0.0807622 -0.0672152 -0.0845438 -0.0970052 -0.092248 -0.0794458 -0.0331962 -0.0464862 -0.0381058 -0.0239644 -0.0480854 -0.0607299 -0.0539162 -0.0409518 -0.0603173 -0.0722808 -0.0668215 -0.0545184 -0.0929255 -0.104784 -0.101177 -0.0890785 -0.0701552 -0.0813957 -0.0771711 -0.0655736 -0.122368 -0.134698 -0.132339 -0.120006 -0.0990862 -0.110543 -0.107866 -0.096362 -0.0775742 -0.0881762 -0.0850829 -0.0742244 0.0653361 0.0576858 0.0729709 0.081189 0.0346125 0.0283679 0.0498405 0.0417723 0.019447 0.079313 0.0726603 0.0880997 0.0948896 0.048643 0.0419204 0.0567474 0.0638557 0.0916457 0.0858379 0.100984 0.106571 0.101029 0.0966978 0.111189 0.115413 0.107766 0.104764 0.11872 0.121618 0.0630821 0.0562271 0.0709871 0.0772425 0.111592 0.110047 0.123484 0.125682 0.116564 0.114396 0.12896 0.128236 0.117461 0.117403 0.127914 0.129438 0.114618 -0.0136353 0.00504839 -0.0054283 -0.023614 0.00844496 0.0263631 0.0160006 -0.00225256 0.0320327 0.0479104 0.0381772 0.0206434 0.0500901 0.0649573 0.0569382 0.0414504 0.0645647 0.0784194 0.0722044 0.0577109 0.075957 0.0891553 0.0841333 0.0706484 0.0849287 0.0977528 0.0936894 0.0808276 -0.0889124 -0.0804011 -0.0992807 -0.108398 -0.0508259 -0.0428828 -0.0697332 -0.0606452 -0.0322552 -0.105722 -0.0977327 -0.116698 -0.124916 -0.0684058 -0.0600151 -0.0783465 -0.0869072 -0.121774 -0.114179 -0.132903 -0.14016 -0.135604 -0.129116 -0.147078 -0.152983 -0.147086 -0.14178 -0.158762 -0.163102 -0.154462 -0.151193 -0.166826 -0.169393 -0.158281 -0.156767 -0.171337 -0.172345 -0.15934 -0.159187 -0.172911 -0.172451 -0.157436 -0.158758 -0.171527 -0.16928 -0.15162 -0.154905 -0.161412 -0.166368 -0.138711 -0.145573 -0.154865 -0.146716 -0.118391 -0.128959 -0.13637 -0.125843 -0.0300214 -0.0222083 -0.0400507 -0.049129 -0.0110214 0.000902654 0.0162911 0.00452993 -0.0140813 0.0211601 0.0354362 0.0264065 0.0114443 0.0375973 0.0508867 0.043651 0.0297778 0.0507972 0.0631786 0.0574974 0.044598 0.061208 0.0728493 0.0684232 0.0564153 -0.126382 -0.138196 -0.136767 -0.124701 -0.128229 -0.139192 -0.127622 -0.139192 -0.126529 -0.136552 -0.127694 -0.138392 -0.120923 -0.13024 -0.133768 -0.124036 -0.112193 -0.121123 -0.125876 -0.116862 -0.101677 -0.110083 -0.11588 -0.107242 -0.0891833 -0.0967456 -0.10387 -0.0957518 -0.0731684 -0.080017 -0.0887779 -0.0815272 -0.052736 -0.0604145 -0.069839 -0.0633222 -0.0335757 -0.0410396 -0.0509338 -0.0434676 -0.0247897 0.00111151 0.0102278 -0.0069217 -0.0162451 0.019157 0.0209807 0.0386041 0.029011 0.0113047 0.0438518 0.0595892 0.0500663 0.0327192 0.0627366 0.0770411 0.0690506 0.0535984 0.0773005 0.0908104 0.0703076 0.0843237 0.0888197 0.101604 0.0965636 0.0833371 0.0980663 0.110244 0.106228 0.093715 0.105196 0.116766 0.113817 0.101904 0.109738 0.120721 0.11904 0.107719 0.111803 0.1221 0.111026 0.121742 0.111027 0.120654 0.11167 0.121681 0.107547 0.116667 0.109543 0.118866 0.105051 -0.103312 -0.114628 -0.112691 -0.101545 -0.106461 -0.117136 -0.116285 -0.105201 -0.106991 -0.116579 -0.107042 -0.117479 -0.103119 -0.111851 -0.105378 -0.114682 -0.0952078 -0.103521 -0.107894 -0.099466 -0.0850874 -0.0931847 -0.098468 -0.0904544 -0.0739462 -0.0813733 -0.0876592 -0.0798258 -0.0609679 -0.066919 -0.0749567 -0.0677866 -0.0424278 -0.0474475 -0.0577043 -0.0520905 -0.0163113 -0.0246636 -0.034418 -0.0298009 -0.00791422 0.00213266 0.0123322 0.0279279 0.0165325 -0.00163995 -0.0146876 -0.00140695 -0.0284207 -0.0154819 0.0348377 0.0486423 0.0392387 0.0239189 0.0511466 0.06408 0.0568093 0.0432926 0.0639941 0.0762626 0.070503 0.0578528 0.00953674 0.022023 0.0109058 -0.00228312 0.026261 0.0385459 0.0304311 0.0181812 0.0401025 0.0518975 0.0454793 0.0334557 -0.03538 -0.0254013 -0.0388125 -0.0480801 -0.0124317 -0.00162717 -0.0238267 -0.0135261 0.00225578 0.0140776 -0.00486674 0.00575288 0.0166305 0.028201 0.00969369 0.0212778 0.0744185 0.0860978 0.0814748 0.0694807 0.0826394 0.0937767 0.0787972 0.0902094 0.0884692 0.0989604 0.0966811 0.0858157 0.0919593 0.101745 0.100697 0.0904707 0.0926524 0.101711 0.0925604 0.102066 0.0904101 0.0988521 0.0917844 0.100542 0.0857179 0.0937438 0.0883169 0.0964446 0.0793614 0.0870728 0.0905099 0.0827963 0.0716958 0.0790271 0.0832015 0.0757917 0.0624751 0.0693065 0.0743935 0.0673559 0.0512048 0.0574711 0.0636549 0.0571167 0.0374546 0.0431771 0.0505801 0.0446129 0.0208696 0.0261634 0.0348686 0.0294543 0.000653473 0.00641613 0.0162917 0.0113122 -0.0219658 -0.0151851 -0.00486302 -0.0103353 -0.0439143 -0.0362522 -0.0262605 -0.0323739 -0.0517402 -0.0787123 -0.0964646 -0.0612764 -0.0697875 0.051783 0.062954 0.0577427 0.0462172 0.0298943 0.0406878 0.0235359 0.0348453 0.0611448 0.071746 0.0676362 0.0567333 0.0682434 0.0782141 0.0752937 0.0649569 0.0730191 0.0823521 0.0805942 0.0708879 0.0753076 0.083856 0.083476 0.0744153 0.0746205 0.0823998 0.0752167 0.0834654 0.0709581 0.0782168 0.0730406 0.0804958 0.0652163 0.0721524 0.0683382 0.0752695 0.0581484 0.0647705 0.0685587 0.0619383 0.0498419 0.0559998 0.0605821 0.0542614 0.0396552 0.0452686 0.0508864 0.0450265 0.0270891 0.0321103 0.0389703 0.0336571 0.0116317 0.016087 0.0243656 0.0196571 -0.00762481 -0.00365479 0.00667214 0.00254378 -0.0304589 -0.0264054 -0.0150567 -0.0186895 -0.0568956 -0.0504414 -0.0395241 -0.0432801 -0.0672237 0.0405769 0.0507137 0.0460294 0.0355075 0.0489248 0.0584391 0.0548853 0.0450167 0.0549266 0.0638318 0.0614325 0.0521828 0.0585786 0.0668117 0.0656398 0.0570011 0.059871 0.0671403 0.0674244 0.0594694 0.0578068 0.0642831 0.0590926 0.0660323 0.0527931 0.0588885 0.0555485 0.0616734 0.0461438 0.0520066 0.0554652 0.0497124 0.0386516 0.0440943 0.0482 0.0426599 0.0295391 0.0344399 0.0395061 0.0343747 0.0181715 0.0224723 0.0287338 0.0241424 0.0040702 0.00769519 0.0154 0.0114176 -0.0133457 -0.0104144 -0.00103687 -0.00432137 -0.0349184 -0.0328389 -0.021438 -0.023577 -0.0611105 -0.0591783 -0.0459067 -0.0475966 -0.093291 -0.0862486 -0.075134 -0.0766839 -0.103423 -0.112886 -0.106074 -0.0865178 -0.102107 -0.0897915 -0.0737894 -0.108303 -0.123266 -0.0976989 -0.113352 -0.124036 -0.137652 -0.116535 -0.131323 -0.130715 -0.14391 -0.12772 -0.141006 -0.0592295 -0.0724628 -0.0600564 -0.0470512 -0.0368942 -0.0477055 -0.0253137 -0.035841 -0.0176929 -0.0269641 -0.00700143 -0.0156623 -0.00204957 -0.00956505 0.00787516 0.000858043