<?xml version="1.0"?>
<VTKFile byte_order="LittleEndian" type="UnstructuredGrid" version="0.1">
<UnstructuredGrid>
<Piece NumberOfCells="386" NumberOfPoints="825">
<PointData>
<DataArray Name="Warping_X" format="ascii" type="Float64">
0.0100134 0.00924419 0.00847496 0.00770573 0.0069365 0.00616727 0.00539803 0.0046288 0.00385957 0.00309034 0.00232111 0.00155188 0.00078265 1.34193e-05 -0.000755812 -0.00152504 -0.00229427 -0.0030635 -0.00383273 -0.00460197 -0.0053712 -0.00614043 -0.00690966 -0.00767889 -0.00844812 -0.00921735 -0.00998658 -0.00998658 -0.00998658 -0.00998658 -0.00998658 -0.00998658 -0.00998658 -0.00998658 -0.00998658 -0.00998658 -0.00998658 -0.00998658 -0.00998658 -0.00998658 -0.00998658 -0.00998658 -0.00998658 -0.00998658 -0.00998658 -0.00998658 -0.00998658 -0.00998658 -0.00998658 -0.00998658 -0.00998658 -0.00998658 -0.00998658 -0.00921735 -0.00844812 -0.00767889 -0.00690966 -0.00614043 -0.0053712 -0.00460197 -0.00383273 -0.0030635 -0.00229427 -0.00152504 -0.000755812 1.34193e-05 0.00078265 0.00155188 0.00232111 0.00309034 0.00385957 0.0046288 0.00539803 0.00616727 0.0069365 0.00770573 0.00847496 0.00924419 0.0100134 0.0100134 0.0100134 0.0100134 0.0100134 0.0100134 0.0100134 0.0100134 0.0100134 0.0100134 0.0100134 0.0100134 0.0100134 0.0100134 0.0100134 0.0100134 0.0100134 0.0100134 0.0100134 0.0100134 0.0100134 0.0100134 0.0100134 0.0100134 0.0100134 0.0100134 -0.00892516 -0.00868664 -0.00945587 -0.00945587 -0.00893386 -0.00946022 -0.00869099 -0.00946022 0.00895757 0.00871627 0.0094855 0.0094855 0.00896039 0.00948691 0.00871768 0.00948691 0.00761853 0.00828946 0.00727752 0.00804675 -0.00757138 -0.00724052 -0.00824827 -0.00800975 -0.00864885 -0.008787 -0.00931771 -0.00931771 -0.00867358 -0.00933008 -0.00880372 -0.00933008 -0.00759381 -0.00826384 -0.00725173 -0.00802097 0.00762181 0.00727915 0.00828969 0.00804839 0.00868071 0.00881914 0.00934706 0.00934706 0.00869591 0.00935466 0.00882815 0.00935466 0.00618758 0.00690306 0.00579281 0.00656204 -0.00853547 -0.00859216 -0.00926102 -0.00926102 -0.00616763 -0.00688072 -0.00576941 -0.00653864 0.00861501 0.00864786 0.00931421 0.00931421 0.0085944 0.00930391 0.00864516 0.00930391 -0.0061334 -0.0057523 -0.00685239 -0.00652153 -0.00858206 -0.00928432 -0.00862782 -0.00928432 0.00620905 0.00580354 0.00691543 0.00657277 0.00858402 0.00929872 0.00858921 0.00929872 -0.00469953 -0.00426613 -0.00541647 -0.00503536 -0.00858646 -0.00928652 -0.00858426 -0.00928652 0.00465983 0.00426003 0.00543444 0.00502926 0.00865671 0.00863586 0.00933506 0.00933506 0.00473486 0.00546122 0.00429722 0.00506645 -0.00852866 -0.00853206 -0.00925762 -0.00925762 -0.00472013 -0.00544388 -0.00427643 -0.00504566 -0.00314383 -0.00393198 -0.00271905 -0.00348828 0.00863427 0.00864549 0.00932384 0.00932384 0.00315915 0.003947 0.00274013 0.00350936 -0.00859442 -0.00856154 -0.0092905 -0.0092905 -0.00864249 -0.00931454 -0.00861448 -0.00931454 0.00312468 0.00272289 0.00389225 0.00349212 0.00862759 0.0093205 0.0086058 0.0093205 -0.00314657 -0.00272042 -0.00392305 -0.00348965 -0.00867072 -0.00932865 -0.00865661 -0.00932865 0.00158358 0.00118311 0.00235413 0.00195234 0.00865354 0.00933348 0.00864056 0.00933348 -0.0015663 -0.00116105 -0.00235643 -0.00193029 -0.00864594 -0.00862018 -0.00931626 -0.00931626 -0.00155056 -0.0023472 -0.00115319 -0.00192242 0.00864096 0.00863761 0.00932719 0.00932719 0.00157316 0.00236615 0.0011779 0.00194713 8.73033e-06 0.000394689 -0.000778784 -0.000374541 0.000790944 -0.00867039 -0.00932955 -0.00867056 -0.00932955 -0.00865816 2.2756e-05 -0.000366528 0.000803167 0.000402703 -0.000763903 0.0086619 0.00933766 0.00865772 0.00933766 0.00865143 0.00815722 -0.00811011 -0.0081337 0.00815126 0.00721956 0.00790698 0.00795774 0.00741905 0.00670357 0.0071304 0.00785721 0.0078624 0.00717498 0.00723453 0.00793106 0.00790927 0.00718247 0.00729589 0.00797471 0.00796174 0.00726521 0.00731825 0.00799007 0.00798589 0.00730707 0.00729675 0.00796885 0.00797932 0.0073075 0.00723406 0.00793416 0.00793751 0.0072654 0.00724143 0.00794907 0.00793785 0.00723774 0.00733639 0.0079757 0.00799655 0.00728891 0.00718062 0.00793066 0.00789781 0.00725851 0.00740122 0.00669484 0.00566059 0.00644008 0.00592408 0.00519772 0.00639549 0.00396093 0.00481076 0.00434789 0.00356004 0.00232733 0.00314413 0.00274324 0.00195024 0.000766625 0.00154698 0.00116989 0.000387678 -0.000789294 -1.13346e-05 -0.000390837 -0.0011778 -0.00237064 -0.00157997 -0.00196847 -0.0027586 -0.00397026 -0.00317045 -0.00355841 -0.0043349 -0.00559317 -0.00478171 -0.00514635 -0.00586328 -0.00715089 -0.00637203 -0.00664215 -0.00736114 -0.00789987 -0.00784318 -0.00705532 -0.00710311 -0.00779539 -0.00779199 -0.00632424 -0.00718609 -0.00712071 -0.00785737 -0.00789026 -0.00729101 -0.00723855 -0.00794272 -0.00796847 -0.0073518 -0.00732141 -0.00799887 -0.00801109 -0.00736568 -0.00735874 -0.00801803 -0.0080182 -0.00734719 -0.00735644 -0.00800896 -0.00799484 -0.00727438 -0.00731079 -0.00795844 -0.00793042 -0.0071414 -0.00720789 -0.00786393 -0.00786173 -0.00720787 -0.00717463 -0.00789496 -0.00794072 -0.00740084 -0.00668775 -0.00566721 -0.00643754 -0.00591742 -0.00519367 -0.0064043 -0.00397234 -0.00481977 -0.00434623 -0.00355808 -0.00232033 -0.00314633 -0.00273208 -0.00193545 -0.000731588 -0.00152596 -0.00114107 -0.000354416 0.000843543 5.59772e-05 0.000433149 0.00121356 0.00240828 0.00162591 0.00199593 0.00276648 0.00393379 0.00317104 0.00352924 0.00429681 0.00547215 0.00470297 0.00506599 0.0058406 0.00632639 0.00613404 0.0058031 0.00673522 0.00665733 0.0058387 0.00598637 0.00654006 0.00658755 0.00576498 0.00580184 0.00650321 0.00649952 0.00589273 0.00582886 0.00656339 0.00659474 0.00597069 0.00593171 0.00663372 0.00664447 0.00598463 0.00597766 0.00665234 0.00664026 0.00596629 0.00597546 0.00663109 0.00660041 0.00587016 0.00591823 0.00655235 0.00650028 0.00576537 0.00452111 0.00519563 0.00424102 0.00509085 0.00471828 0.00432604 0.00509522 0.00542616 0.00527849 0.00326454 0.00283641 0.00359917 0.00399141 0.00168223 0.00126289 0.00204526 0.00247338 0.000103537 -0.000314025 0.00047354 0.000892884 -0.00145424 -0.00188729 -0.00109292 -0.000675352 -0.00298345 -0.00347789 -0.00265189 -0.00221885 -0.00456234 -0.00511477 -0.00426734 -0.00377289 -0.00578745 -0.00590768 -0.00659103 -0.00523501 -0.00652454 -0.00602069 -0.00668394 -0.00596419 -0.00664754 -0.00604894 -0.00670731 -0.00669806 -0.00603482 -0.00607114 -0.00671147 -0.00671841 -0.00606004 -0.006028 -0.0066595 -0.0066899 -0.00604957 -0.00594747 -0.00656678 -0.00661924 -0.00598773 -0.00580529 -0.00643031 -0.00649569 -0.00587638 -0.00569923 -0.00445978 -0.00421502 -0.00513254 -0.00502647 -0.00304217 -0.00270641 -0.00375098 -0.00350622 -0.00152585 -0.00115757 -0.00194825 -0.00228401 -5.6096e-05 0.000355264 -0.000422695 -0.000790972 0.0014756 0.00190146 0.00112111 0.00070975 0.00294214 0.00345153 0.00263473 0.00220887 0.00373162 -0.00471018 -0.00536544 -0.00530893 -0.00463626 -0.00353134 -0.00412076 -0.0032574 -0.00404684 -0.00217069 -0.00285101 -0.00257707 -0.00181247 -0.000665799 -0.00141824 -0.00106002 -0.000280423 0.000892802 0.000113502 0.00128752 0.00049817 0.00253415 0.00171348 0.00289934 0.00210819 0.00423303 0.00338359 0.00374878 0.00447566 0.00503586 0.00499901 -0.00468965 -0.00536929 -0.00535517 -0.00469992 -0.00322236 -0.003956 -0.00396627 -0.00337685 -0.00269652 -0.00478538 -0.00542826 -0.00541716 -0.00473752 -0.00477055 -0.00539927 -0.00542085 -0.00477797 -0.00470651 -0.00532699 -0.00473853 -0.00536725 -0.00331402 -0.00521923 -0.00529032 -0.00466984 -0.0038869 -0.0031781 -0.00213061 -0.00182823 -0.00258639 -0.00272231 -0.000838919 -0.000447508 -0.00118238 -0.00148476 0.000614065 0.00104483 0.000278984 -0.000112427 0.00214963 0.00254588 0.00138185 0.00181261 0.00470082 0.00461096 0.00322072 0.00282447 0.00528549 0.00533356 0.00467421 0.00532942 0.00532025 0.00468751 0.00217991 0.00403171 0.00404502 0.00216477 0.00111172 0.00164581 0.000862892 0.00163068 -0.000245227 0.000433246 -0.000542073 0.000184419 -0.00183843 -0.00104183 -0.00198452 -0.00133868 -0.00257623 -0.00334745 -0.00259294 -0.00402698 -0.00333074 -0.00347033 -0.00340889 -0.00412044 -0.00408842 -0.00349729 -0.00348381 -0.00414134 -0.00413392 -0.00348529 -0.00349129 -0.00408747 -0.00413534 -0.00335382 0.00466011 0.0053154 0.00532237 0.00466716 0.00336791 0.00401401 0.00277391 0.00402106 0.00459614 0.00524444 0.00528342 0.00462813 0.00328083 0.00393849 0.00397047 0.00332437 0.00446676 0.00511587 0.00517975 0.00453145 0.00434989 0.00305367 0.00279391 0.00376022 0.00364335 0.00155601 0.0012244 0.00204508 0.00230484 -3.2873e-05 -0.000349336 0.000429965 0.000761567 -0.00150197 -0.00183633 -0.000767423 -0.00108389 -0.00236217 -0.00221501 -0.00285015 -0.00185849 -0.00271869 -0.00213145 -0.00281379 -0.00217323 -0.00280837 -0.00223423 -0.00285228 -0.00218284 -0.00286576 -0.0021439 -0.00274567 -0.00218906 -0.00280711 -0.00199116 -0.000651324 -0.000448276 -0.00139836 -0.00124488 -0.0010235 -0.000837411 -0.00162886 -0.0015837 -0.00081361 -0.000918554 -0.00147253 -0.00152392 0.000792952 0.000952335 7.08137e-05 0.000273862 0.00148643 0.000460379 0.000626666 -0.000281559 -9.54725e-05 -0.000176616 0.00196757 0.00266774 0.00138026 0.00207374 0.00121398 0.0026242 -0.000794253 -0.000803932 -0.00150463 -0.00146285 -0.00114811 -0.000413563 0.00321527 0.00384102 0.00390571 0.00324805 0.00313447 0.00188022 0.00171811 0.00254775 0.00246694 0.000594214 0.000280671 0.00123722 0.00107511 -0.000100019 0.000514824 -0.000149393 0.000554519 -0.000139714 0.000487602 0.00185808 0.00191283 0.00118645 0.00115923 0.00256946 0.00253668 0.00186915 0.00119752 -0.00463317 -0.00454647 -0.00399031 -0.00397359 0.0034993 0.0040102 0.00344425 0.00410006 0.00338921 0.00337856 0.00276942 0.00278456 
</DataArray>
<DataArray Name="Warping_Y" format="ascii" type="Float64">
0.0100117 0.0100117 0.0100117 0.0100117 0.0100117 0.0100117 0.0100117 0.0100117 0.0100117 0.0100117 0.0100117 0.0100117 0.0100117 0.0100117 0.0100117 0.0100117 0.0100117 0.0100117 0.0100117 0.0100117 0.0100117 0.0100117 0.0100117 0.0100117 0.0100117 0.0100117 0.0100117 0.00924251 0.00847328 0.00770405 0.00693482 0.00616558 0.00539635 0.00462712 0.00385789 0.00308866 0.00231943 0.0015502 0.000780969 1.17384e-05 -0.000757492 -0.00152672 -0.00229595 -0.00306518 -0.00383442 -0.00460365 -0.00537288 -0.00614211 -0.00691134 -0.00768057 -0.0084498 -0.00921903 -0.00998826 -0.00998826 -0.00998826 -0.00998826 -0.00998826 -0.00998826 -0.00998826 -0.00998826 -0.00998826 -0.00998826 -0.00998826 -0.00998826 -0.00998826 -0.00998826 -0.00998826 -0.00998826 -0.00998826 -0.00998826 -0.00998826 -0.00998826 -0.00998826 -0.00998826 -0.00998826 -0.00998826 -0.00998826 -0.00998826 -0.00998826 -0.00921903 -0.0084498 -0.00768057 -0.00691134 -0.00614211 -0.00537288 -0.00460365 -0.00383442 -0.00306518 -0.00229595 -0.00152672 -0.000757492 1.17384e-05 0.000780969 0.0015502 0.00231943 0.00308866 0.00385789 0.00462712 0.00539635 0.00616558 0.00693482 0.00770405 0.00847328 0.00924251 0.00895989 0.00948582 0.00871658 0.00948582 -0.0089318 -0.0086908 -0.00946003 -0.00946003 -0.0089268 -0.00945753 -0.0086883 -0.00945753 0.0089553 0.00871429 0.00948352 0.00948352 0.00867356 0.00881443 0.00934265 0.00934265 0.00868498 0.00934836 0.00882244 0.00934836 0.00762682 0.00829336 0.00728082 0.00805005 -0.00759187 -0.00725161 -0.00826184 -0.00802084 -0.00864911 -0.00879046 -0.00931869 -0.00931869 -0.00864464 -0.00931645 -0.00878572 -0.00931645 -0.00758134 -0.00825407 -0.00724634 -0.00801557 0.00761442 0.00727462 0.00828486 0.00804385 0.00847249 0.00857303 0.00924212 0.00924212 0.0062077 0.00691726 0.00580203 0.00657126 -0.0084447 -0.00854691 -0.00921648 -0.00921648 -0.00616039 -0.00687087 -0.00576664 -0.00653587 0.00619134 0.00579385 0.00690288 0.00656308 0.00848068 0.00924621 0.00858283 0.00924621 -0.00616962 -0.00577125 -0.00688074 -0.00654048 -0.00858124 -0.00928475 -0.00861294 -0.00928475 0.00469775 0.00427782 0.00544455 0.00504705 0.00847773 0.00924474 0.00847921 0.00924474 -0.00467502 -0.00425472 -0.00542232 -0.00502395 -0.00864019 -0.00931536 -0.00861072 -0.00931536 -0.00460975 -0.00538507 -0.00422208 -0.00499131 0.00846327 0.00846788 0.0092375 0.0092375 0.004713 0.00546035 0.00428545 0.00505468 -0.00843267 -0.00843869 -0.00921047 -0.00921047 -0.00857557 -0.00850412 -0.00928192 -0.00928192 -0.00308193 -0.00384584 -0.00268894 -0.00345817 0.00860562 0.00853445 0.00930868 0.00930868 0.0031488 0.0039309 0.00273412 0.00350335 -0.00311705 -0.0027065 -0.00389603 -0.00347573 -0.00863851 -0.00931339 -0.00863935 -0.00931339 0.00314229 0.00273086 0.00392002 0.00350009 0.00862355 0.00931765 0.00855064 0.00931765 -0.00155193 -0.00115471 -0.00233449 -0.00192394 -0.00865281 -0.00932054 -0.00864566 -0.00932054 0.00157498 0.00117797 0.00235863 0.0019472 0.00869168 0.00935171 0.00865762 0.00935171 0.0015743 0.00236155 0.00117763 0.00194686 -0.00864637 -0.00861097 -0.00931732 -0.00931732 -0.00154794 -0.00231493 -0.00115271 -0.00192194 0.00867267 0.00863915 0.0093422 0.0093422 0.00869748 0.00935486 0.00869458 0.00935486 0.00868508 8.11504e-06 0.00039377 -0.000771907 -0.000375461 0.000791205 -0.00866374 -0.009326 -0.00865827 -0.009326 -0.00865505 9.11726e-06 -0.000374188 0.000792048 0.000395043 -0.000769409 0.00814399 0.0081559 -0.00812049 -0.00811299 0.00717802 0.00668468 0.00739622 0.00792579 0.00782525 0.00565424 0.005176 0.00592279 0.00641613 0.00401483 0.00357856 0.00435629 0.00483454 0.00239059 0.00198278 0.00276644 0.00320271 0.000789846 0.000399482 0.00118241 0.00159022 -0.000795312 -0.00117162 -0.000393098 -2.73296e-06 -0.00236827 -0.0027251 -0.0019581 -0.00158179 -0.00389131 -0.00425053 -0.00348662 -0.00312979 -0.00542282 -0.0057916 -0.00501628 -0.00465706 -0.00713326 -0.0073573 -0.00664683 -0.00627804 -0.00788895 -0.00785725 0.00680153 0.00698977 0.00763701 0.0076324 0.00622789 0.00715189 0.00697671 0.00780758 0.00787875 0.0073175 0.00723469 0.00796156 0.00799508 0.00736412 0.00734081 0.0080184 0.0080308 0.0074127 0.00738841 0.00805373 0.00805219 0.00735268 0.00738269 0.00802218 0.00798811 0.00714547 0.00724907 0.00788451 0.0078116 0.0067807 0.00696309 0.00762922 0.00763069 0.00719792 0.00698931 0.0078393 0.00794145 0.00741237 0.00670281 0.0056616 0.00642976 0.00593465 0.0051873 0.00622115 0.00400294 0.00483227 0.00435797 0.00357587 0.00236475 0.00318384 0.00275678 0.00196952 0.000769935 0.00156734 0.00117212 0.000389025 -0.000802256 -1.61604e-05 -0.00039707 -0.00117709 -0.0023723 -0.00158728 -0.00196212 -0.00274468 -0.00398106 -0.00317668 -0.00354906 -0.00432804 -0.00562173 -0.00480139 -0.00514837 -0.00589567 -0.00715033 -0.00638603 -0.00665998 -0.0073711 -0.00789972 -0.00779752 -0.00676175 -0.00695604 -0.00760323 -0.00759721 -0.00619174 -0.00711629 -0.00693902 -0.00777448 -0.00784593 -0.00729487 -0.00720558 -0.00793522 -0.00797062 -0.0073399 -0.00731739 -0.00799314 -0.00800182 -0.00733793 -0.00733892 -0.00800083 -0.00799537 -0.00728139 -0.00730966 -0.0079671 -0.00795995 -0.00726191 -0.00727165 -0.00795021 -0.00795105 -0.00731251 -0.00728721 -0.00797635 -0.00794688 -0.00722289 -0.00610291 -0.00670771 -0.00576286 -0.00661808 -0.00470254 -0.00540272 -0.00429692 -0.00506268 -0.00323667 -0.0039696 -0.00356399 -0.00280247 -0.00163375 -0.00243521 -0.00200101 -0.00121453 -2.32697e-05 -0.00082851 -0.000409291 0.000383288 0.00159295 0.000784842 0.00119068 0.00199177 0.00323276 0.00241285 0.00281167 0.00362379 0.00496318 0.00409797 0.004489 0.00530871 0.00588235 0.00568431 0.00532374 0.0064181 0.00624292 -0.0058488 -0.00655536 -0.00658066 -0.00597585 -0.00527567 -0.00582955 -0.00655547 -0.00654573 -0.00583918 -0.0059754 -0.00665667 -0.00662839 -0.00590248 -0.00603251 -0.00668621 -0.00668522 -0.00600396 -0.0059984 -0.00664664 -0.00666915 -0.00601546 -0.00594926 -0.00653278 -0.00662207 -0.00597383 -0.00563189 -0.00619682 -0.00637409 -0.00579058 -0.005836 -0.00491024 -0.00444565 -0.00527107 -0.00526599 -0.00321055 -0.00279142 -0.00406039 -0.0035958 -0.00163268 -0.00121747 -0.00200249 -0.00242161 -6.16773e-05 0.000354129 -0.000431967 -0.000847178 0.00151956 0.00194215 0.00114475 0.000728939 0.0031566 0.00357977 0.00276068 0.00233808 0.00490353 0.00528257 0.00445323 0.00403007 0.00584212 0.00554654 0.00634601 0.00522504 0.00616362 0.00595615 0.00665442 0.00575135 0.00655081 0.00612985 0.00677127 0.00674126 0.006043 0.00609006 0.00672709 0.00675138 0.00610995 0.00598263 0.00665006 0.00667338 0.00603635 0.00594902 0.00655045 0.00663326 0.00596583 0.00581667 -0.00395108 -0.00358081 -0.00443066 -0.00479148 -0.00464365 -0.00429736 -0.00529646 -0.00513777 -0.00460635 -0.004625 -0.00527781 -0.00530238 -0.00471495 -0.00466065 -0.00535668 -0.00537476 -0.00470915 -0.00471205 -0.00534227 -0.00537083 -0.00456793 -0.00463854 -0.00519874 -0.00527167 -0.00424652 -0.00440723 -0.00503804 -0.00504766 -0.00447453 -0.00374159 -0.00244673 -0.00203971 -0.00282864 -0.00319891 -0.00324663 -0.00284668 -0.00359886 -0.00394514 -0.00392649 -0.00088872 -0.000475199 -0.0012607 -0.00166773 0.000649714 0.00108463 0.000294018 -0.000119503 0.00222411 0.00269036 0.00143691 0.00187183 0.00435595 0.00437249 0.00349903 0.00303278 0.00495125 0.00515605 0.00486727 0.00549856 0.00541171 0.00461161 0.00475002 0.00542004 0.00543993 0.00480865 0.00479097 0.0053868 0.00544052 0.0047705 0.00446351 0.00520626 0.00462724 0.00522307 0.00400539 0.00484485 0.00531177 0.00456902 0.00448429 0.00361907 0.00239809 0.00199552 0.00281542 0.00320174 0.00268559 0.00282639 0.00363004 0.00357455 0.00352773 0.00310666 0.00415935 0.00399562 0.00347151 0.00349962 0.00411077 0.00413124 0.00341333 0.00344242 0.0041403 0.00408168 0.00388464 0.00286218 0.00313775 0.00254314 0.00360906 0.00132575 0.00209396 0.000987732 0.00177493 -0.000190442 0.000567654 -0.000539581 0.000229636 -0.00166476 -0.000927601 -0.00205575 -0.00127674 -0.0024557 0.00078849 0.00038261 0.00119072 0.00159329 0.00167019 0.00122934 0.00217789 0.00203414 -0.00081642 -0.00122509 -0.000419845 -1.3965e-05 0.000128564 -0.000343928 0.000458527 0.000899378 -0.002484 -0.00286033 -0.00205887 -0.00165021 -0.00336526 -0.00306997 -0.00381895 -0.00277698 -0.00365824 -0.00339624 -0.00405269 -0.00398209 -0.0032331 -0.003421 -0.00406798 -0.00406507 -0.00340862 -0.00336394 -0.00398515 -0.00339247 -0.00403945 -0.00330529 -0.00223893 -0.00195185 -0.00280144 -0.00274278 -0.000935712 -0.000562995 -0.00158732 -0.00130024 0.000463776 0.000894763 -0.000235968 0.000136667 0.00195931 0.00241074 0.00121154 0.00164253 0.00268632 0.00217714 0.00282433 0.00206902 0.00279524 0.000988566 0.00158285 0.000726171 0.00147394 -0.000334163 0.000327202 -0.000634938 6.48065e-05 0.00217167 0.0028497 0.00217441 0.00282159 0.00242863 0.000696152 0.00143391 0.000842359 0.00143665 0.000180995 0.00114035 0.00140527 0.00165601 0.00191297 0.000918251 0.000634457 -0.00189685 -0.00111551 -0.00206789 -0.00141628 -0.0026304 -0.00265892 -0.00143506 -0.00195953 -0.00112574 -0.00065325 -0.00225251 -0.00189446 -0.00264535 -0.00166476 -0.00248221 -0.00227697 -0.00284898 -0.00208572 -0.0028366 -0.00208691 -0.000893996 -0.00061408 -0.00158548 -0.00139543 -9.8922e-05 -0.000349772 0.000395288 -0.000621884 0.00017319 -0.000110604 -0.000892418 -0.00112212 -0.00139423 0.00384145 0.004694 0.00335182 0.0040987 0.00467453 0.00517942 0.00396461 0.00433996 0.00325469 0.00246244 0.0038591 0.00297014 
</DataArray>
<DataArray Name="Warping_Z" format="ascii" type="Float64">
0 0 0 0 0 0 0 0 0 0 0 0 0 0 0 0 0 0 0 0 0 0 0 0 0 0 0 0 0 0 0 0 0 0 0 0 0 0 0 0 0 0 0 0 0 0 0 0 0 0 0 0 0 0 0 0 0 0 0 0 0 0 0 0 0 0 0 0 0 0 0 0 0 0 0 0 0 0 0 0 0 0 0 0 0 0 0 0 0 0 0 0 0 0 0 0 0 0 0 0 0 0 0 0 0 0 0 0 0 0 0 0 0 0 0 0 0 0 0 0 0 0 0 0 0 0 0 0 0 0 0 0 0 0 0 0 0 0 0 0 0 0 0 0 0 0 0 0 0 0 0 0 0 0 0 0 0 0 0 0 0 0 0 0 0 0 0 0 0 0 0 0 0 0 0 0 0 0 0 0 0 0 0 0 0 0 0 0 0 0 0 0 0 0 0 0 0 0 0 0 0 0 0 0 0 0 0 0 0 0 0 0 0 0 0 0 0 0 0 0 0 0 0 0 0 0 0 0 0 0 0 0 0 0 0 0 0 0 0 0 0 0 0 0 0 0 0 0 0 0 0 0 0 0 0 0 0 0 0 0 0 0 0 0 0 0 0 0 0 0 0 0 0 0 0 0 0 0 0 0 0 0 0 0 0 0 0 0 0 0 0 0 0 0 0 0 0 0 0 0 0 0 0 0 0 0 0 0 0 0 0 0 0 0 0 0 0 0 0 0 0 0 0 0 0 0 0 0 0 0 0 0 0 0 0 0 0 0 0 0 0 0 0 0 0 0 0 0 0 0 0 0 0 0 0 0 0 0 0 0 0 0 0 0 0 0 0 0 0 0 0 0 0 0 0 0 0 0 0 0 0 0 0 0 0 0 0 0 0 0 0 0 0 0 0 0 0 0 0 0 0 0 0 0 0 0 0 0 0 0 0 0 0 0 0 0 0 0 0 0 0 0 0 0 0 0 0 0 0 0 0 0 0 0 0 0 0 0 0 0 0 0 0 0 0 0 0 0 0 0 0 0 0 0 0 0 0 0 0 0 0 0 0 0 0 0 0 0 0 0 0 0 0 0 0 0 0 0 0 0 0 0 0 0 0 0 0 0 0 0 0 0 0 0 0 0 0 0 0 0 0 0 0 0 0 0 0 0 0 0 0 0 0 0 0 0 0 0 0 0 0 0 0 0 0 0 0 0 0 0 0 0 0 0 0 0 0 0 0 0 0 0 0 0 0 0 0 0 0 0 0 0 0 0 0 0 0 0 0 0 0 0 0 0 0 0 0 0 0 0 0 0 0 0 0 0 0 0 0 0 0 0 0 0 0 0 0 0 0 0 0 0 0 0 0 0 0 0 0 0 0 0 0 0 0 0 0 0 0 0 0 0 0 0 0 0 0 0 0 0 0 0 0 0 0 0 0 0 0 0 0 0 0 0 0 0 0 0 0 0 0 0 0 0 0 0 0 0 0 0 0 0 0 0 0 0 0 0 0 0 0 0 0 0 0 0 0 0 0 0 0 0 0 0 0 0 0 0 0 0 0 0 0 0 0 0 0 0 0 0 0 0 0 0 0 0 0 0 0 0 0 0 0 0 0 0 0 0 0 0 0 0 0 0 0 0 0 0 0 0 0 0 0 0 0 0 0 0 0 0 0 0 0 0 0 0 0 0 0 0 0 0 0 0 0 0 0 0 0 0 0 0 0 0 0 0 0 0 0 0 0 0 0 0 0 0 0 0 0 0 0 0 0 0 0 0 0 0 0 0 0 0 0 0 0 0 0 0 0 0 0 0 0 0 0 0 0 0 0 0 0 0 0 0 0 0 0 0 0 0 0 0 0 0 0 0 0 0 0 0 0 0 0 0 0 
</DataArray>
</PointData>
<CellData>
<DataArray Name="MaterialId" format="ascii" type="Float64">
1 1 1 1 1 1 1 1 1 1 1 1 1 1 1 1 1 1 1 1 1 1 1 1 1 1 1 1 1 1 1 1 1 1 1 1 1 1 1 1 1 1 1 1 1 1 1 1 1 1 1 1 1 1 1 1 1 1 1 1 1 1 1 1 1 1 1 1 1 1 1 1 1 1 1 1 1 1 1 1 1 1 1 1 1 1 1 1 1 1 1 1 1 1 1 1 1 1 1 1 1 1 1 1 1 1 1 1 1 1 1 1 1 1 1 1 1 1 1 1 1 1 1 1 1 1 1 1 1 1 1 1 1 1 1 1 1 1 1 1 1 1 1 1 1 1 1 1 1 1 1 1 1 1 1 1 1 1 1 1 1 1 1 1 1 1 1 1 1 1 1 1 1 1 1 1 1 1 1 1 1 1 1 1 1 1 1 1 1 1 1 1 1 1 1 1 1 1 1 1 1 1 1 1 1 1 1 1 1 1 1 1 1 1 1 1 1 1 1 1 1 1 1 1 1 1 1 1 1 1 1 1 1 1 1 1 1 1 1 1 1 1 1 1 1 1 1 1 1 1 1 1 1 1 1 1 1 1 1 1 1 1 1 1 1 1 1 1 1 1 1 1 1 1 1 1 1 1 1 1 1 1 1 1 1 1 1 1 1 1 1 1 1 1 1 1 1 1 1 1 1 1 1 1 1 1 1 1 1 1 1 1 1 1 1 1 1 1 1 1 1 1 1 1 1 1 1 1 1 1 1 1 1 1 1 1 1 1 1 1 1 1 1 1 1 1 1 1 1 1 1 1 1 1 1 1 1 1 1 1 1 1 1 1 1 1 1 1 1 1 1 1 1 1 1 1 1 1 1 1 1 1 1 1 1 1 
</DataArray>
<DataArray Name="FiberAngle" format="ascii" type="Float64">
0 0 0 0 0 0 0 0 0 0 0 0 0 0 0 0 0 0 0 0 0 0 0 0 0 0 0 0 0 0 0 0 0 0 0 0 0 0 0 0 0 0 0 0 0 0 0 0 0 0 0 0 0 0 0 0 0 0 0 0 0 0 0 0 0 0 0 0 0 0 0 0 0 0 0 0 0 0 0 0 0 0 0 0 0 0 0 0 0 0 0 0 0 0 0 0 0 0 0 0 0 0 0 0 0 0 0 0 0 0 0 0 0 0 0 0 0 0 0 0 0 0 0 0 0 0 0 0 0 0 0 0 0 0 0 0 0 0 0 0 0 0 0 0 0 0 0 0 0 0 0 0 0 0 0 0 0 0 0 0 0 0 0 0 0 0 0 0 0 0 0 0 0 0 0 0 0 0 0 0 0 0 0 0 0 0 0 0 0 0 0 0 0 0 0 0 0 0 0 0 0 0 0 0 0 0 0 0 0 0 0 0 0 0 0 0 0 0 0 0 0 0 0 0 0 0 0 0 0 0 0 0 0 0 0 0 0 0 0 0 0 0 0 0 0 0 0 0 0 0 0 0 0 0 0 0 0 0 0 0 0 0 0 0 0 0 0 0 0 0 0 0 0 0 0 0 0 0 0 0 0 0 0 0 0 0 0 0 0 0 0 0 0 0 0 0 0 0 0 0 0 0 0 0 0 0 0 0 0 0 0 0 0 0 0 0 0 0 0 0 0 0 0 0 0 0 0 0 0 0 0 0 0 0 0 0 0 0 0 0 0 0 0 0 0 0 0 0 0 0 0 0 0 0 0 0 0 0 0 0 0 0 0 0 0 0 0 0 0 0 0 0 0 0 0 0 0 0 0 0 0 0 0 0 0 0 
</DataArray>
<DataArray Name="Strain_11" format="ascii" type="Float64">
0 0 0 0 0 0 0 0 0 0 0 0 0 0 0 0 0 0 0 0 0 0 0 0 0 0 0 0 0 0 0 0 0 0 0 0 0 0 0 0 0 0 0 0 0 0 0 0 0 0 0 0 0 0 0 0 0 0 0 0 0 0 0 0 0 0 0 0 0 0 0 0 0 0 0 0 0 0 0 0 0 0 0 0 0 0 0 0 0 0 0 0 0 0 0 0 0 0 0 0 0 0 0 0 0 0 0 0 0 0 0 0 0 0 0 0 0 0 0 0 0 0 0 0 0 0 0 0 0 0 0 0 0 0 0 0 0 0 0 0 0 0 0 0 0 0 0 0 0 0 0 0 0 0 0 0 0 0 0 0 0 0 0 0 0 0 0 0 0 0 0 0 0 0 0 0 0 0 0 0 0 0 0 0 0 0 0 0 0 0 0 0 0 0 0 0 0 0 0 0 0 0 0 0 0 0 0 0 0 0 0 0 0 0 0 0 0 0 0 0 0 0 0 0 0 0 0 0 0 0 0 0 0 0 0 0 0 0 0 0 0 0 0 0 0 0 0 0 0 0 0 0 0 0 0 0 0 0 0 0 0 0 0 0 0 0 0 0 0 0 0 0 0 0 0 0 0 0 0 0 0 0 0 0 0 0 0 0 0 0 0 0 0 0 0 0 0 0 0 0 0 0 0 0 0 0 0 0 0 0 0 0 0 0 0 0 0 0 0 0 0 0 0 0 0 0 0 0 0 0 0 0 0 0 0 0 0 0 0 0 0 0 0 0 0 0 0 0 0 0 0 0 0 0 0 0 0 0 0 0 0 0 0 0 0 0 0 0 0 0 0 0 0 0 0 0 0 0 0 0 0 0 0 0 0 0 
</DataArray>
<DataArray Name="Strain_22" format="ascii" type="Float64">
0 0 0 0 0 0 0 0 0 0 0 0 0 0 0 0 0 0 0 0 0 0 0 0 0 0 0 0 0 0 0 0 0 0 0 0 0 0 0 0 0 0 0 0 0 0 0 0 0 0 0 0 0 0 0 0 0 0 0 0 0 0 0 0 0 0 0 0 0 0 0 0 0 0 0 0 0 0 0 0 0 0 0 0 0 0 0 0 0 0 0 0 0 0 0 0 0 0 0 0 0 0 0 0 0 0 0 0 0 0 0 0 0 0 0 0 0 0 0 0 0 0 0 0 0 0 0 0 0 0 0 0 0 0 0 0 0 0 0 0 0 0 0 0 0 0 0 0 0 0 0 0 0 0 0 0 0 0 0 0 0 0 0 0 0 0 0 0 0 0 0 0 0 0 0 0 0 0 0 0 0 0 0 0 0 0 0 0 0 0 0 0 0 0 0 0 0 0 0 0 0 0 0 0 0 0 0 0 0 0 0 0 0 0 0 0 0 0 0 0 0 0 0 0 0 0 0 0 0 0 0 0 0 0 0 0 0 0 0 0 0 0 0 0 0 0 0 0 0 0 0 0 0 0 0 0 0 0 0 0 0 0 0 0 0 0 0 0 0 0 0 0 0 0 0 0 0 0 0 0 0 0 0 0 0 0 0 0 0 0 0 0 0 0 0 0 0 0 0 0 0 0 0 0 0 0 0 0 0 0 0 0 0 0 0 0 0 0 0 0 0 0 0 0 0 0 0 0 0 0 0 0 0 0 0 0 0 0 0 0 0 0 0 0 0 0 0 0 0 0 0 0 0 0 0 0 0 0 0 0 0 0 0 0 0 0 0 0 0 0 0 0 0 0 0 0 0 0 0 0 0 0 0 0 0 0 
</DataArray>
<DataArray Name="Strain_12" format="ascii" type="Float64">
0 0 0 0 0 0 0 0 0 0 0 0 0 0 0 0 0 0 0 0 0 0 0 0 0 0 0 0 0 0 0 0 0 0 0 0 0 0 0 0 0 0 0 0 0 0 0 0 0 0 0 0 0 0 0 0 0 0 0 0 0 0 0 0 0 0 0 0 0 0 0 0 0 0 0 0 0 0 0 0 0 0 0 0 0 0 0 0 0 0 0 0 0 0 0 0 0 0 0 0 0 0 0 0 0 0 0 0 0 0 0 0 0 0 0 0 0 0 0 0 0 0 0 0 0 0 0 0 0 0 0 0 0 0 0 0 0 0 0 0 0 0 0 0 0 0 0 0 0 0 0 0 0 0 0 0 0 0 0 0 0 0 0 0 0 0 0 0 0 0 0 0 0 0 0 0 0 0 0 0 0 0 0 0 0 0 0 0 0 0 0 0 0 0 0 0 0 0 0 0 0 0 0 0 0 0 0 0 0 0 0 0 0 0 0 0 0 0 0 0 0 0 0 0 0 0 0 0 0 0 0 0 0 0 0 0 0 0 0 0 0 0 0 0 0 0 0 0 0 0 0 0 0 0 0 0 0 0 0 0 0 0 0 0 0 0 0 0 0 0 0 0 0 0 0 0 0 0 0 0 0 0 0 0 0 0 0 0 0 0 0 0 0 0 0 0 0 0 0 0 0 0 0 0 0 0 0 0 0 0 0 0 0 0 0 0 0 0 0 0 0 0 0 0 0 0 0 0 0 0 0 0 0 0 0 0 0 0 0 0 0 0 0 0 0 0 0 0 0 0 0 0 0 0 0 0 0 0 0 0 0 0 0 0 0 0 0 0 0 0 0 0 0 0 0 0 0 0 0 0 0 0 0 0 0 0 
</DataArray>
<DataArray Name="Strain_13" format="ascii" type="Float64">
0 0 0 0 0 0 0 0 0 0 0 0 0 0 0 0 0 0 0 0 0 0 0 0 0 0 0 0 0 0 0 0 0 0 0 0 0 0 0 0 0 0 0 0 0 0 0 0 0 0 0 0 0 0 0 0 0 0 0 0 0 0 0 0 0 0 0 0 0 0 0 0 0 0 0 0 0 0 0 0 0 0 0 0 0 0 0 0 0 0 0 0 0 0 0 0 0 0 0 0 0 0 0 0 0 0 0 0 0 0 0 0 0 0 0 0 0 0 0 0 0 0 0 0 0 0 0 0 0 0 0 0 0 0 0 0 0 0 0 0 0 0 0 0 0 0 0 0 0 0 0 0 0 0 0 0 0 0 0 0 0 0 0 0 0 0 0 0 0 0 0 0 0 0 0 0 0 0 0 0 0 0 0 0 0 0 0 0 0 0 0 0 0 0 0 0 0 0 0 0 0 0 0 0 0 0 0 0 0 0 0 0 0 0 0 0 0 0 0 0 0 0 0 0 0 0 0 0 0 0 0 0 0 0 0 0 0 0 0 0 0 0 0 0 0 0 0 0 0 0 0 0 0 0 0 0 0 0 0 0 0 0 0 0 0 0 0 0 0 0 0 0 0 0 0 0 0 0 0 0 0 0 0 0 0 0 0 0 0 0 0 0 0 0 0 0 0 0 0 0 0 0 0 0 0 0 0 0 0 0 0 0 0 0 0 0 0 0 0 0 0 0 0 0 0 0 0 0 0 0 0 0 0 0 0 0 0 0 0 0 0 0 0 0 0 0 0 0 0 0 0 0 0 0 0 0 0 0 0 0 0 0 0 0 0 0 0 0 0 0 0 0 0 0 0 0 0 0 0 0 0 0 0 0 0 0 
</DataArray>
<DataArray Name="Strain_23" format="ascii" type="Float64">
0 0 0 0 0 0 0 0 0 0 0 0 0 0 0 0 0 0 0 0 0 0 0 0 0 0 0 0 0 0 0 0 0 0 0 0 0 0 0 0 0 0 0 0 0 0 0 0 0 0 0 0 0 0 0 0 0 0 0 0 0 0 0 0 0 0 0 0 0 0 0 0 0 0 0 0 0 0 0 0 0 0 0 0 0 0 0 0 0 0 0 0 0 0 0 0 0 0 0 0 0 0 0 0 0 0 0 0 0 0 0 0 0 0 0 0 0 0 0 0 0 0 0 0 0 0 0 0 0 0 0 0 0 0 0 0 0 0 0 0 0 0 0 0 0 0 0 0 0 0 0 0 0 0 0 0 0 0 0 0 0 0 0 0 0 0 0 0 0 0 0 0 0 0 0 0 0 0 0 0 0 0 0 0 0 0 0 0 0 0 0 0 0 0 0 0 0 0 0 0 0 0 0 0 0 0 0 0 0 0 0 0 0 0 0 0 0 0 0 0 0 0 0 0 0 0 0 0 0 0 0 0 0 0 0 0 0 0 0 0 0 0 0 0 0 0 0 0 0 0 0 0 0 0 0 0 0 0 0 0 0 0 0 0 0 0 0 0 0 0 0 0 0 0 0 0 0 0 0 0 0 0 0 0 0 0 0 0 0 0 0 0 0 0 0 0 0 0 0 0 0 0 0 0 0 0 0 0 0 0 0 0 0 0 0 0 0 0 0 0 0 0 0 0 0 0 0 0 0 0 0 0 0 0 0 0 0 0 0 0 0 0 0 0 0 0 0 0 0 0 0 0 0 0 0 0 0 0 0 0 0 0 0 0 0 0 0 0 0 0 0 0 0 0 0 0 0 0 0 0 0 0 0 0 0 0 
</DataArray>
<DataArray Name="Strain_33" format="ascii" type="Float64">
0 0 0 0 0 0 0 0 0 0 0 0 0 0 0 0 0 0 0 0 0 0 0 0 0 0 0 0 0 0 0 0 0 0 0 0 0 0 0 0 0 0 0 0 0 0 0 0 0 0 0 0 0 0 0 0 0 0 0 0 0 0 0 0 0 0 0 0 0 0 0 0 0 0 0 0 0 0 0 0 0 0 0 0 0 0 0 0 0 0 0 0 0 0 0 0 0 0 0 0 0 0 0 0 0 0 0 0 0 0 0 0 0 0 0 0 0 0 0 0 0 0 0 0 0 0 0 0 0 0 0 0 0 0 0 0 0 0 0 0 0 0 0 0 0 0 0 0 0 0 0 0 0 0 0 0 0 0 0 0 0 0 0 0 0 0 0 0 0 0 0 0 0 0 0 0 0 0 0 0 0 0 0 0 0 0 0 0 0 0 0 0 0 0 0 0 0 0 0 0 0 0 0 0 0 0 0 0 0 0 0 0 0 0 0 0 0 0 0 0 0 0 0 0 0 0 0 0 0 0 0 0 0 0 0 0 0 0 0 0 0 0 0 0 0 0 0 0 0 0 0 0 0 0 0 0 0 0 0 0 0 0 0 0 0 0 0 0 0 0 0 0 0 0 0 0 0 0 0 0 0 0 0 0 0 0 0 0 0 0 0 0 0 0 0 0 0 0 0 0 0 0 0 0 0 0 0 0 0 0 0 0 0 0 0 0 0 0 0 0 0 0 0 0 0 0 0 0 0 0 0 0 0 0 0 0 0 0 0 0 0 0 0 0 0 0 0 0 0 0 0 0 0 0 0 0 0 0 0 0 0 0 0 0 0 0 0 0 0 0 0 0 0 0 0 0 0 0 0 0 0 0 0 0 0 0 
</DataArray>
<DataArray Name="Stress_11" format="ascii" type="Float64">
0 0 0 0 0 0 0 0 0 0 0 0 0 0 0 0 0 0 0 0 0 0 0 0 0 0 0 0 0 0 0 0 0 0 0 0 0 0 0 0 0 0 0 0 0 0 0 0 0 0 0 0 0 0 0 0 0 0 0 0 0 0 0 0 0 0 0 0 0 0 0 0 0 0 0 0 0 0 0 0 0 0 0 0 0 0 0 0 0 0 0 0 0 0 0 0 0 0 0 0 0 0 0 0 0 0 0 0 0 0 0 0 0 0 0 0 0 0 0 0 0 0 0 0 0 0 0 0 0 0 0 0 0 0 0 0 0 0 0 0 0 0 0 0 0 0 0 0 0 0 0 0 0 0 0 0 0 0 0 0 0 0 0 0 0 0 0 0 0 0 0 0 0 0 0 0 0 0 0 0 0 0 0 0 0 0 0 0 0 0 0 0 0 0 0 0 0 0 0 0 0 0 0 0 0 0 0 0 0 0 0 0 0 0 0 0 0 0 0 0 0 0 0 0 0 0 0 0 0 0 0 0 0 0 0 0 0 0 0 0 0 0 0 0 0 0 0 0 0 0 0 0 0 0 0 0 0 0 0 0 0 0 0 0 0 0 0 0 0 0 0 0 0 0 0 0 0 0 0 0 0 0 0 0 0 0 0 0 0 0 0 0 0 0 0 0 0 0 0 0 0 0 0 0 0 0 0 0 0 0 0 0 0 0 0 0 0 0 0 0 0 0 0 0 0 0 0 0 0 0 0 0 0 0 0 0 0 0 0 0 0 0 0 0 0 0 0 0 0 0 0 0 0 0 0 0 0 0 0 0 0 0 0 0 0 0 0 0 0 0 0 0 0 0 0 0 0 0 0 0 0 0 0 0 0 0 
</DataArray>
<DataArray Name="Stress_22" format="ascii" type="Float64">
0 0 0 0 0 0 0 0 0 0 0 0 0 0 0 0 0 0 0 0 0 0 0 0 0 0 0 0 0 0 0 0 0 0 0 0 0 0 0 0 0 0 0 0 0 0 0 0 0 0 0 0 0 0 0 0 0 0 0 0 0 0 0 0 0 0 0 0 0 0 0 0 0 0 0 0 0 0 0 0 0 0 0 0 0 0 0 0 0 0 0 0 0 0 0 0 0 0 0 0 0 0 0 0 0 0 0 0 0 0 0 0 0 0 0 0 0 0 0 0 0 0 0 0 0 0 0 0 0 0 0 0 0 0 0 0 0 0 0 0 0 0 0 0 0 0 0 0 0 0 0 0 0 0 0 0 0 0 0 0 0 0 0 0 0 0 0 0 0 0 0 0 0 0 0 0 0 0 0 0 0 0 0 0 0 0 0 0 0 0 0 0 0 0 0 0 0 0 0 0 0 0 0 0 0 0 0 0 0 0 0 0 0 0 0 0 0 0 0 0 0 0 0 0 0 0 0 0 0 0 0 0 0 0 0 0 0 0 0 0 0 0 0 0 0 0 0 0 0 0 0 0 0 0 0 0 0 0 0 0 0 0 0 0 0 0 0 0 0 0 0 0 0 0 0 0 0 0 0 0 0 0 0 0 0 0 0 0 0 0 0 0 0 0 0 0 0 0 0 0 0 0 0 0 0 0 0 0 0 0 0 0 0 0 0 0 0 0 0 0 0 0 0 0 0 0 0 0 0 0 0 0 0 0 0 0 0 0 0 0 0 0 0 0 0 0 0 0 0 0 0 0 0 0 0 0 0 0 0 0 0 0 0 0 0 0 0 0 0 0 0 0 0 0 0 0 0 0 0 0 0 0 0 0 0 0 
</DataArray>
<DataArray Name="Stress_12" format="ascii" type="Float64">