<?xml version="1.0"?>
<VTKFile byte_order="LittleEndian" type="UnstructuredGrid" version="0.1">
<UnstructuredGrid>
<Piece NumberOfCells="386" NumberOfPoints="825">
<PointData>
<DataArray Name="Warping_X" format="ascii" type="Float64">
-0.600033 -0.553879 -0.507725 -0.461571 -0.415417 -0.369264 -0.32311 -0.276956 -0.230802 -0.184648 -0.138494 -0.0923405 -0.0461863 -3.29883e-05 0.0461213 0.0922747 0.138429 0.184582 0.230736 0.27689 0.323044 0.369198 0.415352 0.461506 0.507659 0.553813 0.599967 0.553785 0.507603 0.461422 0.41524 0.369058 0.322876 0.276694 0.230513 0.184331 0.138149 0.0919674 0.0457848 -0.00039632 -0.0465786 -0.0927602 -0.138942 -0.185124 -0.231306 -0.277487 -0.323669 -0.369851 -0.416033 -0.462215 -0.508397 -0.554578 -0.60076 -0.554606 -0.508452 -0.462299 -0.416145 -0.369991 -0.323837 -0.277683 -0.231529 -0.185376 -0.139222 -0.0930679 -0.046914 -0.000760187 0.0453937 0.0915475 0.137701 0.183855 0.230009 0.276163 0.322317 0.368471 0.414624 0.460778 0.506932 0.553086 0.59924 0.553114 0.506988 0.460862 0.414736 0.36861 0.322485 0.276359 0.230233 0.184107 0.137981 0.0918552 0.0457294 -0.000396518 -0.0465224 -0.0926483 -0.138774 -0.1849 -0.231026 -0.277152 -0.323278 -0.369403 -0.415529 -0.461655 -0.507781 -0.553907 0.479832 0.494498 0.494492 0.538225 -0.480844 -0.495381 -0.495418 -0.539134 0.478964 0.493717 0.493732 0.537421 -0.480178 -0.494741 -0.494721 -0.538437 -0.395327 -0.437185 -0.406741 -0.449807 0.394628 0.406307 0.436671 0.449399 0.395664 0.437195 0.40684 0.449935 -0.396989 -0.407851 -0.438393 -0.451003 -0.396022 -0.437865 -0.407458 -0.450521 0.394456 0.405921 0.436145 0.448974 0.394196 0.436021 0.405806 0.448856 -0.396181 -0.407198 -0.437648 -0.450284 -0.313517 -0.35399 -0.320136 -0.362738 0.31764 0.35641 0.322024 0.364857 -0.314322 -0.354735 -0.320924 -0.363515 0.31792 0.355918 0.321854 0.364753 -0.318334 -0.322498 -0.357041 -0.365349 0.312254 0.319399 0.353 0.36202 -0.319412 -0.323219 -0.358005 -0.36616 0.318724 0.322232 0.356456 0.365139 -0.241198 -0.237913 -0.279743 -0.28074 0.23931 0.237018 0.275776 0.279632 -0.2424 -0.238618 -0.280916 -0.281569 0.240491 0.236915 0.279745 0.279964 0.239104 0.278609 0.236246 0.279241 -0.23951 -0.276493 -0.237189 -0.279769 0.240726 0.279168 0.237489 0.280306 -0.240536 -0.277403 -0.238103 -0.280667 -0.163383 -0.202297 -0.153102 -0.195996 0.159511 0.199256 0.150372 0.193315 -0.162288 -0.201235 -0.152159 -0.195068 0.161738 0.201386 0.151675 0.194644 -0.163005 -0.152629 -0.202834 -0.195709 0.160768 0.150861 0.200625 0.1939 -0.162085 -0.15214 -0.201743 -0.195068 0.163196 0.152587 0.201593 0.195537 -0.0819281 -0.0658213 -0.122533 -0.108967 0.0809167 0.0647596 0.120875 0.107832 -0.0813792 -0.0655704 -0.121793 -0.108558 0.0821907 0.0657602 0.122855 0.108868 0.0808445 0.121413 0.0649108 0.107998 -0.0819581 -0.12284 -0.0660358 -0.109093 0.0802837 0.119913 0.0646338 0.107592 -0.081134 -0.121871 -0.0652485 -0.108312 0.000163607 -0.0214298 0.0411903 0.0216922 -0.0405436 -0.00058486 0.0210331 -0.0412565 -0.0221166 0.0401875 -0.000226012 -0.0220232 0.0403709 0.0210741 -0.041133 -0.00026059 0.0211802 -0.0408395 -0.0218267 0.0400604 -0.397466 0.396856 -0.398218 0.396015 -0.309983 -0.316193 -0.352116 -0.35176 -0.313754 -0.241137 -0.243253 -0.278556 -0.275356 -0.173692 -0.169712 -0.206062 -0.20767 -0.104253 -0.0944772 -0.131668 -0.139122 -0.0344715 -0.0189397 -0.056353 -0.0694167 0.0348422 0.0560454 0.0189381 0.000236325 0.102628 0.129571 0.0931871 0.068883 0.168729 0.202391 0.165811 0.135662 0.238188 0.27664 0.240257 0.203241 0.306602 0.34939 0.314354 0.272795 0.349528 0.314773 -0.230208 -0.269215 -0.270542 -0.237166 -0.238202 -0.169252 -0.200623 -0.202858 -0.167518 -0.10156 -0.135812 -0.130317 -0.0928801 -0.0333566 -0.0675674 -0.0556621 -0.0181123 0.0355172 0.000967792 0.019402 0.0573634 0.104878 0.0703401 0.0951496 0.132558 0.170374 0.138123 0.168611 0.203385 0.227554 0.199852 0.235707 0.268527 0.308769 0.267187 0.312469 0.35076 0.351252 0.315261 0.239434 0.273881 0.277324 0.242176 0.235948 0.172157 0.20612 0.205011 0.168751 0.102814 0.137743 0.130743 0.0934356 0.0331368 0.0681206 0.0554294 0.0177826 -0.0364655 -0.00163156 -0.0201113 -0.0577293 -0.105771 -0.0711619 -0.0954784 -0.132941 -0.175134 -0.140628 -0.170843 -0.207401 -0.24244 -0.209114 -0.244472 -0.279742 -0.310973 -0.276554 -0.317214 -0.35301 -0.35263 -0.314667 -0.231509 -0.270343 -0.271652 -0.238396 -0.239495 -0.171119 -0.202215 -0.204351 -0.169065 -0.102973 -0.137489 -0.131596 -0.0940262 -0.0335261 -0.068357 -0.0561371 -0.018374 0.035943 0.00121314 0.0194908 0.0569703 0.104135 0.0701715 0.0942222 0.130993 0.170432 0.137328 0.16727 0.20396 0.239224 0.204711 0.241475 0.277572 0.273372 0.223934 0.23278 0.232288 0.26365 0.164204 0.193448 0.168173 0.199578 0.111586 0.137733 0.138708 0.10902 0.0575897 0.0848949 0.078631 0.0479817 0.00085342 0.0294099 0.0163122 -0.0151657 -0.0569901 -0.0280339 -0.0473149 -0.0790526 -0.115325 -0.0862026 -0.111469 -0.143021 -0.174212 -0.145018 -0.175893 -0.206368 -0.202788 -0.153611 -0.165371 -0.162665 -0.19 0.164829 0.169293 0.200371 0.193842 0.166443 0.113335 0.1106 0.140446 0.13904 0.0593342 0.0493527 0.080312 0.0866809 0.00265228 -0.0137993 0.0178485 0.0311283 -0.05354 -0.0765723 -0.0449873 -0.0255243 -0.107799 -0.137728 -0.106725 -0.0807824 -0.155545 -0.191654 -0.164646 -0.132424 -0.204141 -0.175437 -0.17719 -0.166947 -0.207622 -0.117175 -0.113141 -0.146594 -0.144706 -0.0602706 -0.0500082 -0.0815806 -0.0887899 -0.0030794 0.0134312 -0.0183344 -0.0317273 0.0543144 0.0769628 0.0452141 0.0257199 0.112195 0.140603 0.1091 0.0834525 0.170565 0.203578 0.173226 0.141752 0.199657 0.148355 0.160538 0.160757 0.185856 0.108802 0.108247 0.129449 0.137932 0.0563304 0.0473413 0.0790546 0.0829612 0.00235975 -0.0139259 0.0174841 0.0292574 -0.0525624 -0.0753558 -0.0444285 -0.0253481 -0.104512 -0.135044 -0.104298 -0.0786113 -0.129689 -0.112853 -0.11647 -0.142422 -0.134572 -0.0995791 -0.107441 -0.104762 -0.126034 -0.0610829 -0.0802549 -0.082804 -0.0588075 -0.0198316 -0.0407023 -0.0351677 -0.0100891 0.0243405 0.0022687 0.040338 0.0150629 0.0687017 0.0468688 0.0896363 0.0658165 0.107258 0.0887988 0.112596 0.134877 0.134633 0.111742 -0.0698601 -0.0667252 -0.0919928 -0.0913104 -0.0637753 -0.0685782 -0.0867421 -0.0810297 -0.0645741 -0.026356 -0.0163128 -0.0419033 -0.0483318 0.017939 0.034486 0.00881765 -0.00417427 0.0623374 0.0855304 0.0402894 0.0597225 0.0864922 0.136672 0.110704 0.0846033 0.115377 0.0982995 0.0622424 0.0604317 0.0840332 0.0752749 0.0240075 0.0147571 0.0387472 0.0428978 -0.0174465 -0.0334644 -0.00884925 0.00336978 -0.0572942 -0.0791374 -0.0381246 -0.0564642 -0.11257 -0.133543 -0.102196 -0.0770951 -0.141711 -0.115414 -0.0670434 -0.0635993 -0.0895667 -0.0897428 -0.0350565 -0.0681547 -0.0877902 -0.0462561 -0.0234383 -0.0305967 -0.0213854 -0.0389094 0.00509853 -0.00905549 0.0134144 -0.00447329 0.0375224 0.0214496 0.0492453 0.0327691 0.059921 0.0571869 0.0486024 0.0610629 0.0719144 0.0271174 0.0424353 0.0238467 0.0430616 -0.00466276 0.0112886 -0.0141602 0.00503355 -0.0356511 -0.0201831 -0.0513429 -0.0325168 -0.050337 -0.0220242 -0.0121811 -0.0379086 -0.0444998 -0.0337158 -0.029579 -0.0361956 -0.0489533 0.0223447 0.0383776 0.0132344 0.000314232 -0.00268257 0.00796664 -0.0109881 -0.0179978 0.0661989 0.0874266 0.0637129 0.0445954 0.0873463 0.0557063 0.0633714 0.0621946 0.0794007 0.0310222 0.0289874 0.0481428 0.0440972 -0.0014748 -0.00942452 0.00964436 0.0148327 -0.0312122 -0.0449013 -0.0164692 -0.0272163 -0.0477964 -0.0305712 -0.0342052 -0.032095 -0.0456506 -0.0126239 -0.0101667 -0.0214342 -0.0226568 0.00571616 0.0148185 -0.0036699 0.00176607 0.0248836 0.0394052 0.0155023 0.027261 0.0318695 0.00831854 0.00749718 0.017105 0.0207199 0.00571661 0.00768097 0.00666934 0.0136681 -0.00212553 0.00137901 -0.00618559 9.48849e-05 -0.0104204 -0.016281 -0.00106274 -0.00468518 -0.0216693 -0.0022071 -0.00557767 0.00110382 0.000586243 -0.000197364 -0.0135884 -0.0225391 -0.0138215 -0.0238302 -0.00689349 -0.0101286 -0.00971502 -0.00596565 -0.0194141 -0.0130973 -0.0189062 -0.00733559 0.0273456 0.0448031 0.0261265 0.0124853 0.0419223 0.0208851 0.026684 0.0250353 0.0362266 0.00749588 0.00408665 0.0149283 0.0176443 -0.00190124 0.00229538 -0.00103062 0.00473094 -0.00174059 -8.57032e-05 0.00359151 -0.00475368 0.00404 -0.00150062 0.0014753 0.0132591 0.012187 0.0095412 0.106513 0.127877 0.0799615 0.0975208 -0.0977504 -0.124133 -0.0816226 -0.106366 -0.0659638 -0.0497892 -0.0638767 -0.0494778 
</DataArray>
<DataArray Name="Warping_Y" format="ascii" type="Float64">
-0.000446968 -0.0447977 -0.0855981 -0.122848 -0.156548 -0.186698 -0.213297 -0.236346 -0.255844 -0.271793 -0.284191 -0.293039 -0.298336 -0.300083 -0.29828 -0.292927 -0.284023 -0.271569 -0.255565 -0.23601 -0.212905 -0.18625 -0.156045 -0.122289 -0.0849827 -0.0441263 0.000280356 0.0446591 0.0854875 0.122766 0.156493 0.186671 0.213298 0.236375 0.255902 0.271878 0.284304 0.29318 0.298506 0.30028 0.298506 0.29318 0.284304 0.271878 0.255902 0.236375 0.213298 0.186671 0.156493 0.122766 0.0854875 0.0446591 0.000280361 -0.0441263 -0.0849827 -0.122289 -0.156045 -0.18625 -0.212905 -0.23601 -0.255565 -0.271569 -0.284023 -0.292927 -0.29828 -0.300083 -0.298336 -0.293039 -0.284191 -0.271793 -0.255845 -0.236346 -0.213297 -0.186697 -0.156548 -0.122848 -0.0855981 -0.0447977 -0.000446965 0.0439317 0.0847601 0.122038 0.155766 0.185944 0.212571 0.235648 0.255174 0.271151 0.283577 0.292452 0.297778 0.299553 0.297778 0.292452 0.283577 0.271151 0.255174 0.235648 0.212571 0.185944 0.155766 0.122038 0.0847601 0.0439317 -0.000271915 -0.0419682 0.0419404 -1.09512e-05 0.000442652 0.0423081 -0.0416099 0.000367418 -0.000107306 -0.0421824 0.041661 -0.000268219 -0.000225326 0.04161 -0.0422514 -0.000330743 -0.0519282 -0.0273677 -0.103244 -0.0679702 -0.0528952 -0.103478 -0.0279014 -0.0681952 0.0513678 0.0268235 0.102948 0.0676228 0.0531798 0.103891 0.028107 0.0685927 -0.0512279 -0.0266795 -0.102642 -0.0673077 -0.0514959 -0.10302 -0.0270801 -0.0677389 0.0520023 0.0272477 0.102889 0.0676148 0.0523558 0.103105 0.0273613 0.0678093 -0.1007 -0.0778196 -0.155689 -0.127268 0.104308 0.0793388 0.157718 0.129218 -0.0997768 -0.0769965 -0.15503 -0.126537 0.10728 0.0811523 0.158924 0.130479 0.105942 0.15822 0.0806599 0.129758 -0.101679 -0.15597 -0.0788065 -0.127555 0.107249 0.15927 0.0817251 0.130804 -0.106669 -0.158991 -0.0805762 -0.13052 0.154094 0.203631 0.131691 0.182166 -0.148295 -0.200729 -0.126529 -0.179174 0.156206 0.205114 0.133403 0.183647 -0.160052 -0.207121 -0.135158 -0.185774 0.159647 0.135266 0.206481 0.185165 -0.147664 -0.125765 -0.200531 -0.179012 0.152823 0.130241 0.203317 0.181817 -0.146616 -0.124768 -0.199866 -0.178264 -0.19129 -0.170801 -0.236701 -0.222286 0.193848 0.178498 0.237749 0.223509 -0.192075 -0.171717 -0.237177 -0.222845 0.192991 0.174739 0.23771 0.22337 0.195638 0.239122 0.17774 0.224801 -0.195637 -0.239032 -0.179613 -0.224779 0.192814 0.237263 0.175267 0.222938 -0.192502 -0.237362 -0.172191 -0.222941 0.219141 0.257997 0.209226 0.250839 -0.217967 -0.257295 -0.208583 -0.25015 0.216226 0.256088 0.206362 0.24893 -0.218564 -0.257607 -0.207402 -0.250384 0.21786 0.207283 0.257307 0.250151 -0.217577 -0.206333 -0.257052 -0.249864 0.215609 0.206493 0.255749 0.2486 -0.217877 -0.206859 -0.257231 -0.250109 -0.226409 -0.261543 -0.224347 -0.261499 -0.223979 0.226457 0.261693 0.224624 0.26168 0.223999 -0.225875 -0.261216 -0.223748 -0.261223 -0.223582 0.223991 0.259955 0.221947 0.259961 0.221618 0.000184581 -0.000794618 0.000939873 0.000260232 0.00137358 0.0529702 0.0253728 -0.0237192 -0.0492053 0.0560985 0.104198 0.0796291 0.0304715 0.108013 0.149529 0.130038 0.0840635 0.141778 0.178119 0.16639 0.126871 0.157916 0.190057 0.186196 0.151769 0.156838 0.185293 0.189502 0.159262 0.139074 0.165372 0.176361 0.149809 0.110685 0.134051 0.151303 0.126619 0.0719251 0.0887845 0.114975 0.0930573 0.000609412 0.0247688 0.0531115 0.0384433 -0.023876 -0.0521652 -0.0429209 -0.0224902 -0.0699248 -0.0938642 0.00595574 -0.106424 -0.0767468 -0.126203 -0.148147 -0.144227 -0.127306 -0.167426 -0.180101 -0.160581 -0.15423 -0.188433 -0.192593 -0.162444 -0.163326 -0.193599 -0.189729 -0.144613 -0.155401 -0.180729 -0.167798 -0.105 -0.126693 -0.147621 -0.125715 -0.0430347 -0.0758927 -0.094104 -0.0704082 -0.000764253 -0.0235888 -0.0507638 -0.0253038 0.0237568 0.0510696 0.0543121 0.0285373 0.0778907 0.102614 0.00497458 0.107888 0.0831508 0.129382 0.149499 0.143637 0.127767 0.167501 0.17984 0.161199 0.154323 0.188759 0.19296 0.161551 0.163229 0.19322 0.18949 0.145669 0.155458 0.181596 0.169811 0.111691 0.130617 0.15282 0.133019 0.0585432 0.0871225 0.106481 0.0815644 0.00273438 0.032388 0.0542966 0.0264921 -0.0226737 -0.0480763 -0.0407087 -0.0206541 -0.0683063 -0.0922411 0.00826209 -0.104706 -0.0747676 -0.124781 -0.146916 -0.143819 -0.126285 -0.166833 -0.179772 -0.160531 -0.154067 -0.188277 -0.192315 -0.160099 -0.162176 -0.192174 -0.188147 -0.142533 -0.15315 -0.17935 -0.168089 -0.112836 -0.12943 -0.153306 -0.135415 -0.0718226 -0.0941021 -0.11511 -0.0884456 -0.0377716 -8.63357e-05 -0.0351857 0.035182 0.000236271 0.0348335 0.0187789 0.071777 0.0520861 0.0672926 0.0526706 0.0876752 0.10213 0.0952788 0.0832005 0.116231 0.125107 0.106164 0.102662 0.130629 0.131173 0.0991649 0.104623 0.127732 0.11966 0.0748855 0.0890417 0.107538 0.0907017 0.0290578 0.0542105 0.0678138 0.0417452 -0.00442986 -0.0358236 -0.00435787 -0.0697436 -0.03941 -0.0368849 -0.0738243 -0.0531732 -0.0199405 -0.000981785 -0.0708542 -0.105663 -0.0906422 -0.0554543 -0.0993266 -0.128848 -0.120046 -0.0869522 -0.109661 -0.134337 -0.134013 -0.106361 -0.101933 -0.122178 -0.130274 -0.107616 -0.0796313 -0.0918807 -0.110697 -0.0925342 -0.0326558 -0.0366403 -0.0672894 -0.0579377 -0.00151029 0.0326327 0.0714083 -0.000978416 0.0448261 0.0782183 0.111151 0.0575826 0.0942209 0.102281 0.131133 0.123121 0.0921165 0.111187 0.135482 0.135524 0.108585 0.102812 0.122564 0.131113 0.108874 0.0770595 0.0918606 0.109464 0.0919408 0.0299117 0.041371 0.0680784 0.0557593 -0.00395237 -0.0317943 -0.0666593 -0.00198899 -0.0372356 -0.0779704 -0.110167 -0.0562638 -0.0910702 -0.105213 -0.133001 -0.124327 -0.0932936 -0.110904 -0.135033 -0.135765 -0.109678 -0.100677 -0.12166 -0.129575 -0.107542 -0.0802116 -0.0930109 -0.111098 -0.0920566 -0.059835 0.0199141 0.0481894 0.0258879 -0.00426841 -0.0272762 -0.00436361 -0.0524004 -0.0300308 -0.0496732 -0.0398622 -0.0637951 -0.0747347 -0.0656992 -0.0593761 -0.0830476 -0.0868567 -0.0646559 -0.0669993 -0.081256 -0.0863117 -0.0440329 -0.0563499 -0.0566499 -0.0707384 -0.00121988 -0.0247135 -0.034861 -0.0173035 0.0150291 0.0320411 0.048312 0.074408 0.062374 0.03581 -0.000405817 0.0228183 0.00846608 -0.0124489 -0.0244824 0.0667443 0.088239 0.0837305 0.0593418 0.0675286 0.0845519 0.088469 0.0689114 0.0522376 0.0641457 0.0617391 0.0765873 -0.0233633 0.0252003 0.0480149 0.0385055 -0.0275002 -0.0488018 -0.0569434 -0.0801569 -0.0671909 -0.0410076 -0.0652268 -0.0871783 -0.0841459 -0.0623261 -0.067546 -0.0836033 -0.0882963 -0.0679685 -0.0459255 -0.0618845 -0.0584238 -0.0719113 0.0178135 -0.00691522 -0.0536108 -0.038786 0.0230981 0.0455962 0.0478321 0.0726968 0.0606292 0.0347598 -0.00752955 0.0244438 0.00925503 -0.0243575 -0.0335911 -0.0208842 -0.0495575 -0.0399095 -0.0357833 -0.0360659 -0.0495435 -0.0509127 -0.0244403 -0.032013 -0.0391704 -0.0442428 -0.0248684 0.00955026 -0.00892516 0.029814 -0.00523385 0.0312731 0.0221708 0.0484757 0.0412146 0.0368968 0.0358086 0.0509419 0.0515263 0.028335 0.0342461 0.0376942 0.0467236 0.0157895 0.062713 0.0836443 0.0801085 0.0572154 0.0253011 0.0433377 0.00860053 0.0356841 0.0606966 0.0772279 0.0824849 0.0636335 0.0317849 0.045613 0.0461488 0.0303198 0.0405655 0.0530899 0.0669393 0.0527041 0.0219617 -0.000955164 -0.0210135 0.0185651 -0.00109246 -0.0278436 -0.0452868 -0.0356262 -0.0160018 -0.0354262 -0.0496075 -0.049439 -0.0335278 -0.0273246 -0.0376766 -0.0329916 -0.0456674 -0.0160747 -0.000301123 0.0130539 -0.013245 -0.000352933 0.0111033 0.0230079 0.00666959 0.0187428 0.0145411 0.0223185 0.0142831 0.0248438 0.0025785 0.00558922 0.010231 0.0159072 -0.00941577 -0.0128007 -0.0231591 -0.00674983 -0.0185312 0.00031731 -0.00528551 0.00653641 0.00121293 0.00163976 0.0022577 0.00534035 0.00705433 -0.0122846 -0.0216349 -0.014107 -0.0235752 -0.0111517 -0.000905481 -0.00504511 -0.00188129 -0.00613484 -5.39907e-05 0.0074805 0.0151306 -0.00263912 0.00173249 0.00173176 0.019107 -0.00902508 -0.00186144 -0.00608925 0.000390806 -0.0169362 -0.0209181 0.0242762 0.0320713 0.0413433 0.029861 0.0136456 -0.000597169 -0.0126077 0.010661 -0.000772557 -0.014807 -0.0244299 -0.0088327 -0.0210795 -0.0132536 -0.00180837 -0.00117279 -0.00687795 -0.0059477 0.000537274 0.00966584 0.0102295 0.00279762 0.00373548 0.0193788 0.0164729 0.00632352 -0.0018503 0.0208577 -0.00331034 0.0146834 -0.00235935 -0.0289808 -0.0324206 -0.0117717 -0.0063306 0.00243169 0.015749 -0.0218034 -0.00340285 
</DataArray>
<DataArray Name="Warping_Z" format="ascii" type="Float64">
0 0 0 0 0 0 0 0 0 0 0 0 0 0 0 0 0 0 0 0 0 0 0 0 0 0 0 0 0 0 0 0 0 0 0 0 0 0 0 0 0 0 0 0 0 0 0 0 0 0 0 0 0 0 0 0 0 0 0 0 0 0 0 0 0 0 0 0 0 0 0 0 0 0 0 0 0 0 0 0 0 0 0 0 0 0 0 0 0 0 0 0 0 0 0 0 0 0 0 0 0 0 0 0 0 0 0 0 0 0 0 0 0 0 0 0 0 0 0 0 0 0 0 0 0 0 0 0 0 0 0 0 0 0 0 0 0 0 0 0 0 0 0 0 0 0 0 0 0 0 0 0 0 0 0 0 0 0 0 0 0 0 0 0 0 0 0 0 0 0 0 0 0 0 0 0 0 0 0 0 0 0 0 0 0 0 0 0 0 0 0 0 0 0 0 0 0 0 0 0 0 0 0 0 0 0 0 0 0 0 0 0 0 0 0 0 0 0 0 0 0 0 0 0 0 0 0 0 0 0 0 0 0 0 0 0 0 0 0 0 0 0 0 0 0 0 0 0 0 0 0 0 0 0 0 0 0 0 0 0 0 0 0 0 0 0 0 0 0 0 0 0 0 0 0 0 0 0 0 0 0 0 0 0 0 0 0 0 0 0 0 0 0 0 0 0 0 0 0 0 0 0 0 0 0 0 0 0 0 0 0 0 0 0 0 0 0 0 0 0 0 0 0 0 0 0 0 0 0 0 0 0 0 0 0 0 0 0 0 0 0 0 0 0 0 0 0 0 0 0 0 0 0 0 0 0 0 0 0 0 0 0 0 0 0 0 0 0 0 0 0 0 0 0 0 0 0 0 0 0 0 0 0 0 0 0 0 0 0 0 0 0 0 0 0 0 0 0 0 0 0 0 0 0 0 0 0 0 0 0 0 0 0 0 0 0 0 0 0 0 0 0 0 0 0 0 0 0 0 0 0 0 0 0 0 0 0 0 0 0 0 0 0 0 0 0 0 0 0 0 0 0 0 0 0 0 0 0 0 0 0 0 0 0 0 0 0 0 0 0 0 0 0 0 0 0 0 0 0 0 0 0 0 0 0 0 0 0 0 0 0 0 0 0 0 0 0 0 0 0 0 0 0 0 0 0 0 0 0 0 0 0 0 0 0 0 0 0 0 0 0 0 0 0 0 0 0 0 0 0 0 0 0 0 0 0 0 0 0 0 0 0 0 0 0 0 0 0 0 0 0 0 0 0 0 0 0 0 0 0 0 0 0 0 0 0 0 0 0 0 0 0 0 0 0 0 0 0 0 0 0 0 0 0 0 0 0 0 0 0 0 0 0 0 0 0 0 0 0 0 0 0 0 0 0 0 0 0 0 0 0 0 0 0 0 0 0 0 0 0 0 0 0 0 0 0 0 0 0 0 0 0 0 0 0 0 0 0 0 0 0 0 0 0 0 0 0 0 0 0 0 0 0 0 0 0 0 0 0 0 0 0 0 0 0 0 0 0 0 0 0 0 0 0 0 0 0 0 0 0 0 0 0 0 0 0 0 0 0 0 0 0 0 0 0 0 0 0 0 0 0 0 0 0 0 0 0 0 0 0 0 0 0 0 0 0 0 0 0 0 0 0 0 0 0 0 0 0 0 0 0 0 0 0 0 0 0 0 0 0 0 0 0 0 0 0 0 0 0 0 0 0 0 0 0 0 0 0 0 0 0 0 0 0 0 0 0 0 0 0 0 0 0 0 0 0 0 0 0 0 0 0 0 0 0 0 0 0 0 0 0 0 0 0 0 0 0 0 0 0 0 0 0 0 0 0 0 0 0 0 0 0 0 0 0 0 0 0 0 0 0 0 0 0 0 
</DataArray>
</PointData>
<CellData>
<DataArray Name="MaterialId" format="ascii" type="Float64">
1 1 1 1 1 1 1 1 1 1 1 1 1 1 1 1 1 1 1 1 1 1 1 1 1 1 1 1 1 1 1 1 1 1 1 1 1 1 1 1 1 1 1 1 1 1 1 1 1 1 1 1 1 1 1 1 1 1 1 1 1 1 1 1 1 1 1 1 1 1 1 1 1 1 1 1 1 1 1 1 1 1 1 1 1 1 1 1 1 1 1 1 1 1 1 1 1 1 1 1 1 1 1 1 1 1 1 1 1 1 1 1 1 1 1 1 1 1 1 1 1 1 1 1 1 1 1 1 1 1 1 1 1 1 1 1 1 1 1 1 1 1 1 1 1 1 1 1 1 1 1 1 1 1 1 1 1 1 1 1 1 1 1 1 1 1 1 1 1 1 1 1 1 1 1 1 1 1 1 1 1 1 1 1 1 1 1 1 1 1 1 1 1 1 1 1 1 1 1 1 1 1 1 1 1 1 1 1 1 1 1 1 1 1 1 1 1 1 1 1 1 1 1 1 1 1 1 1 1 1 1 1 1 1 1 1 1 1 1 1 1 1 1 1 1 1 1 1 1 1 1 1 1 1 1 1 1 1 1 1 1 1 1 1 1 1 1 1 1 1 1 1 1 1 1 1 1 1 1 1 1 1 1 1 1 1 1 1 1 1 1 1 1 1 1 1 1 1 1 1 1 1 1 1 1 1 1 1 1 1 1 1 1 1 1 1 1 1 1 1 1 1 1 1 1 1 1 1 1 1 1 1 1 1 1 1 1 1 1 1 1 1 1 1 1 1 1 1 1 1 1 1 1 1 1 1 1 1 1 1 1 1 1 1 1 1 1 1 1 1 1 1 1 1 1 1 1 1 1 1 1 1 1 1 1 1 
</DataArray>
<DataArray Name="FiberAngle" format="ascii" type="Float64">
0 0 0 0 0 0 0 0 0 0 0 0 0 0 0 0 0 0 0 0 0 0 0 0 0 0 0 0 0 0 0 0 0 0 0 0 0 0 0 0 0 0 0 0 0 0 0 0 0 0 0 0 0 0 0 0 0 0 0 0 0 0 0 0 0 0 0 0 0 0 0 0 0 0 0 0 0 0 0 0 0 0 0 0 0 0 0 0 0 0 0 0 0 0 0 0 0 0 0 0 0 0 0 0 0 0 0 0 0 0 0 0 0 0 0 0 0 0 0 0 0 0 0 0 0 0 0 0 0 0 0 0 0 0 0 0 0 0 0 0 0 0 0 0 0 0 0 0 0 0 0 0 0 0 0 0 0 0 0 0 0 0 0 0 0 0 0 0 0 0 0 0 0 0 0 0 0 0 0 0 0 0 0 0 0 0 0 0 0 0 0 0 0 0 0 0 0 0 0 0 0 0 0 0 0 0 0 0 0 0 0 0 0 0 0 0 0 0 0 0 0 0 0 0 0 0 0 0 0 0 0 0 0 0 0 0 0 0 0 0 0 0 0 0 0 0 0 0 0 0 0 0 0 0 0 0 0 0 0 0 0 0 0 0 0 0 0 0 0 0 0 0 0 0 0 0 0 0 0 0 0 0 0 0 0 0 0 0 0 0 0 0 0 0 0 0 0 0 0 0 0 0 0 0 0 0 0 0 0 0 0 0 0 0 0 0 0 0 0 0 0 0 0 0 0 0 0 0 0 0 0 0 0 0 0 0 0 0 0 0 0 0 0 0 0 0 0 0 0 0 0 0 0 0 0 0 0 0 0 0 0 0 0 0 0 0 0 0 0 0 0 0 0 0 0 0 0 0 0 0 0 0 0 0 0 0 
</DataArray>
<DataArray Name="Strain_11" format="ascii" type="Float64">
0 0 0 0 0 0 0 0 0 0 0 0 0 0 0 0 0 0 0 0 0 0 0 0 0 0 0 0 0 0 0 0 0 0 0 0 0 0 0 0 0 0 0 0 0 0 0 0 0 0 0 0 0 0 0 0 0 0 0 0 0 0 0 0 0 0 0 0 0 0 0 0 0 0 0 0 0 0 0 0 0 0 0 0 0 0 0 0 0 0 0 0 0 0 0 0 0 0 0 0 0 0 0 0 0 0 0 0 0 0 0 0 0 0 0 0 0 0 0 0 0 0 0 0 0 0 0 0 0 0 0 0 0 0 0 0 0 0 0 0 0 0 0 0 0 0 0 0 0 0 0 0 0 0 0 0 0 0 0 0 0 0 0 0 0 0 0 0 0 0 0 0 0 0 0 0 0 0 0 0 0 0 0 0 0 0 0 0 0 0 0 0 0 0 0 0 0 0 0 0 0 0 0 0 0 0 0 0 0 0 0 0 0 0 0 0 0 0 0 0 0 0 0 0 0 0 0 0 0 0 0 0 0 0 0 0 0 0 0 0 0 0 0 0 0 0 0 0 0 0 0 0 0 0 0 0 0 0 0 0 0 0 0 0 0 0 0 0 0 0 0 0 0 0 0 0 0 0 0 0 0 0 0 0 0 0 0 0 0 0 0 0 0 0 0 0 0 0 0 0 0 0 0 0 0 0 0 0 0 0 0 0 0 0 0 0 0 0 0 0 0 0 0 0 0 0 0 0 0 0 0 0 0 0 0 0 0 0 0 0 0 0 0 0 0 0 0 0 0 0 0 0 0 0 0 0 0 0 0 0 0 0 0 0 0 0 0 0 0 0 0 0 0 0 0 0 0 0 0 0 0 0 0 0 0 0 
</DataArray>
<DataArray Name="Strain_22" format="ascii" type="Float64">
0 0 0 0 0 0 0 0 0 0 0 0 0 0 0 0 0 0 0 0 0 0 0 0 0 0 0 0 0 0 0 0 0 0 0 0 0 0 0 0 0 0 0 0 0 0 0 0 0 0 0 0 0 0 0 0 0 0 0 0 0 0 0 0 0 0 0 0 0 0 0 0 0 0 0 0 0 0 0 0 0 0 0 0 0 0 0 0 0 0 0 0 0 0 0 0 0 0 0 0 0 0 0 0 0 0 0 0 0 0 0 0 0 0 0 0 0 0 0 0 0 0 0 0 0 0 0 0 0 0 0 0 0 0 0 0 0 0 0 0 0 0 0 0 0 0 0 0 0 0 0 0 0 0 0 0 0 0 0 0 0 0 0 0 0 0 0 0 0 0 0 0 0 0 0 0 0 0 0 0 0 0 0 0 0 0 0 0 0 0 0 0 0 0 0 0 0 0 0 0 0 0 0 0 0 0 0 0 0 0 0 0 0 0 0 0 0 0 0 0 0 0 0 0 0 0 0 0 0 0 0 0 0 0 0 0 0 0 0 0 0 0 0 0 0 0 0 0 0 0 0 0 0 0 0 0 0 0 0 0 0 0 0 0 0 0 0 0 0 0 0 0 0 0 0 0 0 0 0 0 0 0 0 0 0 0 0 0 0 0 0 0 0 0 0 0 0 0 0 0 0 0 0 0 0 0 0 0 0 0 0 0 0 0 0 0 0 0 0 0 0 0 0 0 0 0 0 0 0 0 0 0 0 0 0 0 0 0 0 0 0 0 0 0 0 0 0 0 0 0 0 0 0 0 0 0 0 0 0 0 0 0 0 0 0 0 0 0 0 0 0 0 0 0 0 0 0 0 0 0 0 0 0 0 0 0 
</DataArray>
<DataArray Name="Strain_12" format="ascii" type="Float64">
0 0 0 0 0 0 0 0 0 0 0 0 0 0 0 0 0 0 0 0 0 0 0 0 0 0 0 0 0 0 0 0 0 0 0 0 0 0 0 0 0 0 0 0 0 0 0 0 0 0 0 0 0 0 0 0 0 0 0 0 0 0 0 0 0 0 0 0 0 0 0 0 0 0 0 0 0 0 0 0 0 0 0 0 0 0 0 0 0 0 0 0 0 0 0 0 0 0 0 0 0 0 0 0 0 0 0 0 0 0 0 0 0 0 0 0 0 0 0 0 0 0 0 0 0 0 0 0 0 0 0 0 0 0 0 0 0 0 0 0 0 0 0 0 0 0 0 0 0 0 0 0 0 0 0 0 0 0 0 0 0 0 0 0 0 0 0 0 0 0 0 0 0 0 0 0 0 0 0 0 0 0 0 0 0 0 0 0 0 0 0 0 0 0 0 0 0 0 0 0 0 0 0 0 0 0 0 0 0 0 0 0 0 0 0 0 0 0 0 0 0 0 0 0 0 0 0 0 0 0 0 0 0 0 0 0 0 0 0 0 0 0 0 0 0 0 0 0 0 0 0 0 0 0 0 0 0 0 0 0 0 0 0 0 0 0 0 0 0 0 0 0 0 0 0 0 0 0 0 0 0 0 0 0 0 0 0 0 0 0 0 0 0 0 0 0 0 0 0 0 0 0 0 0 0 0 0 0 0 0 0 0 0 0 0 0 0 0 0 0 0 0 0 0 0 0 0 0 0 0 0 0 0 0 0 0 0 0 0 0 0 0 0 0 0 0 0 0 0 0 0 0 0 0 0 0 0 0 0 0 0 0 0 0 0 0 0 0 0 0 0 0 0 0 0 0 0 0 0 0 0 0 0 0 0 0 
</DataArray>
<DataArray Name="Strain_13" format="ascii" type="Float64">
0 0 0 0 0 0 0 0 0 0 0 0 0 0 0 0 0 0 0 0 0 0 0 0 0 0 0 0 0 0 0 0 0 0 0 0 0 0 0 0 0 0 0 0 0 0 0 0 0 0 0 0 0 0 0 0 0 0 0 0 0 0 0 0 0 0 0 0 0 0 0 0 0 0 0 0 0 0 0 0 0 0 0 0 0 0 0 0 0 0 0 0 0 0 0 0 0 0 0 0 0 0 0 0 0 0 0 0 0 0 0 0 0 0 0 0 0 0 0 0 0 0 0 0 0 0 0 0 0 0 0 0 0 0 0 0 0 0 0 0 0 0 0 0 0 0 0 0 0 0 0 0 0 0 0 0 0 0 0 0 0 0 0 0 0 0 0 0 0 0 0 0 0 0 0 0 0 0 0 0 0 0 0 0 0 0 0 0 0 0 0 0 0 0 0 0 0 0 0 0 0 0 0 0 0 0 0 0 0 0 0 0 0 0 0 0 0 0 0 0 0 0 0 0 0 0 0 0 0 0 0 0 0 0 0 0 0 0 0 0 0 0 0 0 0 0 0 0 0 0 0 0 0 0 0 0 0 0 0 0 0 0 0 0 0 0 0 0 0 0 0 0 0 0 0 0 0 0 0 0 0 0 0 0 0 0 0 0 0 0 0 0 0 0 0 0 0 0 0 0 0 0 0 0 0 0 0 0 0 0 0 0 0 0 0 0 0 0 0 0 0 0 0 0 0 0 0 0 0 0 0 0 0 0 0 0 0 0 0 0 0 0 0 0 0 0 0 0 0 0 0 0 0 0 0 0 0 0 0 0 0 0 0 0 0 0 0 0 0 0 0 0 0 0 0 0 0 0 0 0 0 0 0 0 0 0 
</DataArray>
<DataArray Name="Strain_23" format="ascii" type="Float64">
0 0 0 0 0 0 0 0 0 0 0 0 0 0 0 0 0 0 0 0 0 0 0 0 0 0 0 0 0 0 0 0 0 0 0 0 0 0 0 0 0 0 0 0 0 0 0 0 0 0 0 0 0 0 0 0 0 0 0 0 0 0 0 0 0 0 0 0 0 0 0 0 0 0 0 0 0 0 0 0 0 0 0 0 0 0 0 0 0 0 0 0 0 0 0 0 0 0 0 0 0 0 0 0 0 0 0 0 0 0 0 0 0 0 0 0 0 0 0 0 0 0 0 0 0 0 0 0 0 0 0 0 0 0 0 0 0 0 0 0 0 0 0 0 0 0 0 0 0 0 0 0 0 0 0 0 0 0 0 0 0 0 0 0 0 0 0 0 0 0 0 0 0 0 0 0 0 0 0 0 0 0 0 0 0 0 0 0 0 0 0 0 0 0 0 0 0 0 0 0 0 0 0 0 0 0 0 0 0 0 0 0 0 0 0 0 0 0 0 0 0 0 0 0 0 0 0 0 0 0 0 0 0 0 0 0 0 0 0 0 0 0 0 0 0 0 0 0 0 0 0 0 0 0 0 0 0 0 0 0 0 0 0 0 0 0 0 0 0 0 0 0 0 0 0 0 0 0 0 0 0 0 0 0 0 0 0 0 0 0 0 0 0 0 0 0 0 0 0 0 0 0 0 0 0 0 0 0 0 0 0 0 0 0 0 0 0 0 0 0 0 0 0 0 0 0 0 0 0 0 0 0 0 0 0 0 0 0 0 0 0 0 0 0 0 0 0 0 0 0 0 0 0 0 0 0 0 0 0 0 0 0 0 0 0 0 0 0 0 0 0 0 0 0 0 0 0 0 0 0 0 0 0 0 0 0 
</DataArray>
<DataArray Name="Strain_33" format="ascii" type="Float64">
0 0 0 0 0 0 0 0 0 0 0 0 0 0 0 0 0 0 0 0 0 0 0 0 0 0 0 0 0 0 0 0 0 0 0 0 0 0 0 0 0 0 0 0 0 0 0 0 0 0 0 0 0 0 0 0 0 0 0 0 0 0 0 0 0 0 0 0 0 0 0 0 0 0 0 0 0 0 0 0 0 0 0 0 0 0 0 0 0 0 0 0 0 0 0 0 0 0 0 0 0 0 0 0 0 0 0 0 0 0 0 0 0 0 0 0 0 0 0 0 0 0 0 0 0 0 0 0 0 0 0 0 0 0 0 0 0 0 0 0 0 0 0 0 0 0 0 0 0 0 0 0 0 0 0 0 0 0 0 0 0 0 0 0 0 0 0 0 0 0 0 0 0 0 0 0 0 0 0 0 0 0 0 0 0 0 0 0 0 0 0 0 0 0 0 0 0 0 0 0 0 0 0 0 0 0 0 0 0 0 0 0 0 0 0 0 0 0 0 0 0 0 0 0 0 0 0 0 0 0 0 0 0 0 0 0 0 0 0 0 0 0 0 0 0 0 0 0 0 0 0 0 0 0 0 0 0 0 0 0 0 0 0 0 0 0 0 0 0 0 0 0 0 0 0 0 0 0 0 0 0 0 0 0 0 0 0 0 0 0 0 0 0 0 0 0 0 0 0 0 0 0 0 0 0 0 0 0 0 0 0 0 0 0 0 0 0 0 0 0 0 0 0 0 0 0 0 0 0 0 0 0 0 0 0 0 0 0 0 0 0 0 0 0 0 0 0 0 0 0 0 0 0 0 0 0 0 0 0 0 0 0 0 0 0 0 0 0 0 0 0 0 0 0 0 0 0 0 0 0 0 0 0 0 0 0 
</DataArray>
<DataArray Name="Stress_11" format="ascii" type="Float64">
0 0 0 0 0 0 0 0 0 0 0 0 0 0 0 0 0 0 0 0 0 0 0 0 0 0 0 0 0 0 0 0 0 0 0 0 0 0 0 0 0 0 0 0 0 0 0 0 0 0 0 0 0 0 0 0 0 0 0 0 0 0 0 0 0 0 0 0 0 0 0 0 0 0 0 0 0 0 0 0 0 0 0 0 0 0 0 0 0 0 0 0 0 0 0 0 0 0 0 0 0 0 0 0 0 0 0 0 0 0 0 0 0 0 0 0 0 0 0 0 0 0 0 0 0 0 0 0 0 0 0 0 0 0 0 0 0 0 0 0 0 0 0 0 0 0 0 0 0 0 0 0 0 0 0 0 0 0 0 0 0 0 0 0 0 0 0 0 0 0 0 0 0 0 0 0 0 0 0 0 0 0 0 0 0 0 0 0 0 0 0 0 0 0 0 0 0 0 0 0 0 0 0 0 0 0 0 0 0 0 0 0 0 0 0 0 0 0 0 0 0 0 0 0 0 0 0 0 0 0 0 0 0 0 0 0 0 0 0 0 0 0 0 0 0 0 0 0 0 0 0 0 0 0 0 0 0 0 0 0 0 0 0 0 0 0 0 0 0 0 0 0 0 0 0 0 0 0 0 0 0 0 0 0 0 0 0 0 0 0 0 0 0 0 0 0 0 0 0 0 0 0 0 0 0 0 0 0 0 0 0 0 0 0 0 0 0 0 0 0 0 0 0 0 0 0 0 0 0 0 0 0 0 0 0 0 0 0 0 0 0 0 0 0 0 0 0 0 0 0 0 0 0 0 0 0 0 0 0 0 0 0 0 0 0 0 0 0 0 0 0 0 0 0 0 0 0 0 0 0 0 0 0 0 0 0 
</DataArray>
<DataArray Name="Stress_22" format="ascii" type="Float64">
0 0 0 0 0 0 0 0 0 0 0 0 0 0 0 0 0 0 0 0 0 0 0 0 0 0 0 0 0 0 0 0 0 0 0 0 0 0 0 0 0 0 0 0 0 0 0 0 0 0 0 0 0 0 0 0 0 0 0 0 0 0 0 0 0 0 0 0 0 0 0 0 0 0 0 0 0 0 0 0 0 0 0 0 0 0 0 0 0 0 0 0 0 0 0 0 0 0 0 0 0 0 0 0 0 0 0 0 0 0 0 0 0 0 0 0 0 0 0 0 0 0 0 0 0 0 0 0 0 0 0 0 0 0 0 0 0 0 0 0 0 0 0 0 0 0 0 0 0 0 0 0 0 0 0 0 0 0 0 0 0 0 0 0 0 0 0 0 0 0 0 0 0 0 0 0 0 0 0 0 0 0 0 0 0 0 0 0 0 0 0 0 0 0 0 0 0 0 0 0 0 0 0 0 0 0 0 0 0 0 0 0 0 0 0 0 0 0 0 0 0 0 0 0 0 0 0 0 0 0 0 0 0 0 0 0 0 0 0 0 0 0 0 0 0 0 0 0 0 0 0 0 0 0 0 0 0 0 0 0 0 0 0 0 0 0 0 0 0 0 0 0 0 0 0 0 0 0 0 0 0 0 0 0 0 0 0 0 0 0 0 0 0 0 0 0 0 0 0 0 0 0 0 0 0 0 0 0 0 0 0 0 0 0 0 0 0 0 0 0 0 0 0 0 0 0 0 0 0 0 0 0 0 0 0 0 0 0 0 0 0 0 0 0 0 0 0 0 0 0 0 0 0 0 0 0 0 0 0 0 0 0 0 0 0 0 0 0 0 0 0 0 0 0 0 0 0 0 0 0 0 0 0 0 0 0 
</DataArray>
<DataArray Name="Stress_12" format="ascii" type="Float64">
0 0 0 0 0 0 0 0 0 0 0 0 0 0 0 0 0 0 0 0 0 0 0 0 0 0 0 0 0 0 0 0 0 0 0 0 0 0 0 0 0 0 0 0 0 0 0 0 0 0 0 0 0 0 0 0 0 0 0 0 0 0 0 0 0 0 0 0 0 0 0 0 0 0 0 0 0 0 0 0 0 0 0 0 0 0 0 0 0 0 0 0 0 0 0 0 0 0 0 0 0 0 0 0 0 0 0 0 0 0 0 0 0 0 0 0 0 0 0 0 0 0 0 0 0 0 0 0 0 0 0 0 0 0 0 0 0 0 0 0 0 0 0 0 0 0 0 0 0 0 0 0 0 0 0 0 0 0 0 0 0 0 0 0 0 0 0 0 0 0 0 0 0 0 0 0 0 0 0 0 0 0 0 0 0 0 0 0 0 0 0 0 0 0 0 0 0 0 0 0 0 0 0 0 0 0 0 0 0 0 0 0 0 0 0 0 0 0 0 0 0 0 0 0 0 0 0 0 0 0 0 0 0 0 0 0 0 0 0 0 0 0 0 0 0 0 0 0 0 0 0 0 0 0 0 0 0 0 0 0 0 0 0 0 0 0 0 0 0 0 0 0 0 0 0 0 0 0 0 0 0 0 0 0 0 0 0 0 0 0 0 0 0 0 0 0 0 0 0 0 0 0 0 0 0 0 0 0 0 0 0 0 0 0 0 0 0 0 0 0 0 0 0 0 0 0 0 0 0 0 0 0 0 0 0 0 0 0 0 0 0 0 0 0 0 0 0 0 0 0 0 0 0 0 0 0 0 0 0 0 0 0 0 0 0 0 0 0 0 0 0 0 0 0 0 0 0 0 0 0 0 0 0 0 0 0 
</DataArray>
<DataArray Name="Stress_13" format="ascii" type="Float64">
0 0 0 0 0 0 0 0 0 0 0 0 0 0 0 0 0 0 0 0 0 0 0 0 0 0 0 0 0 0 0 0 0 0 0 0 0 0 0 0 0 0 0 0 0 0 0 0 0 0 0 0 0 0 0 0 0 0 0 0 0 0 0 0 0 0 0 0 0 0 0 0 0 0 0 0 0 0 0 0 0 0 0 0 0 0 0 0 0 0 0 0 0 0 0 0 0 0 0 0 0 0 0 0 0 0 0 0 0 0 0 0 0 0 0 0 0 0 0 0 0 0 0 0 0 0 0 0 0 0 0 0 0 0 0 0 0 0 0 0 0 0 0 0 0 0 0 0 0 0 0 0 0 0 0 0 0 0 0 0 0 0 0 0 0 0 0 0 0 0 0 0 0 0 0 0 0 0 0 0 0 0 0 0 0 0 0 0 0 0 0 0 0 0 0 0 0 0 0 0 0 0 0 0 0 0 0 0 0 0 0 0 0 0 0 0 0 0 0 0 0 0 0 0 0 0 0 0 0 0 0 0 0 0 0 0 0 0 0 0 0 0 0 0 0 0 0 0 0 0 0 0 0 0 0 0 0 0 0 0 0 0 0 0 0 0 0 0 0 0 0 0 0 0 0 0 0 0 0 0 0 0 0 0 0 0 0 0 0 0 0 0 0 0 0 0 0 0 0 0 0 0 0 0 0 0 0 0 0 0 0 0 0 0 0 0 0 0 0 0 0 0 0 0 0 0 0 0 0 0 0 0 0 0 0 0 0 0 0 0 0 0 0 0 0 0 0 0 0 0 0 0 0 0 0 0 0 0 0 0 0 0 0 0 0 0 0 0 0 0 0 0 0 0 0 0 0 0 0 0 0 0 0 0 0 0 
</DataArray>
<DataArray Name="Stress_23" format="ascii" type="Float64">
0 0 0 0 0 0 0 0 0 0 0 0 0 0 0 0 0 0 0 0 0 0 0 0 0 0 0 0 0 0 0 0 0 0 0 0 0 0 0 0 0 0 0 0 0 0 0 0 0 0 0 0 0 0 0 0 0 0 0 0 0 0 0 0 0 0 0 0 0 0 0 0 0 0 0 0 0 0 0 0 0 0 0 0 0 0 0 0 0 0 0 0 0 0 0 0 0 0 0 0 0 0 0 0 0 0 0 0 0 0 0 0 0 0 0 0 0 0 0 0 0 0 0 0 0 0 0 0 0 0 0 0 0 0 0 0 0 0 0 0 0 0 0 0 0 0 0 0 0 0 0 0 0 0 0 0 0 0 0 0 0 0 0 0 0 0 0 0 0 0 0 0 0 0 0 0 0 0 0 0 0 0 0 0 0 0 0 0 0 0 0 0 0 0 0 0 0 0 0 0 0 0 0 0 0 0 0 0 0 0 0 0 0 0 0 0 0 0 0 0 0 0 0 0 0 0 0 0 0 0 0 0 0 0 0 0 0 0 0 0 0 0 0 0 0 0 0 0 0 0 0 0 0 0 0 0 0 0 0 0 0 0 0 0 0 0 0 0 0 0 0 0 0 0 0 0 0 0 0 0 0 0 0 0 0 0 0 0 0 0 0 0 0 0 0 0 0 0 0 0 0 0 0 0 0 0 0 0 0 0 0 0 0 0 0 0 0 0 0 0 0 0 0 0 0 0 0 0 0 0 0 0 0 0 0 0 0 0 0 0 0 0 0 0 0 0 0 0 0 0 0 0 0 0 0 0 0 0 0 0 0 0 0 0 0 0 0 0 0 0 0 0 0 0 0 0 0 0 0 0 0 0 0 0 0 0 
</DataArray>
<DataArray Name="Stress_33" format="ascii" type="Float64">