<?xml version="1.0"?>
<VTKFile byte_order="LittleEndian" type="UnstructuredGrid" version="0.1">
<UnstructuredGrid>
<Piece NumberOfCells="576" NumberOfPoints="2016">
<PointData>
</PointData>
<CellData>
<DataArray Name="MaterialId" format="ascii" type="Float64">
1 1 1 1 1 1 1 1 1 1 1 1 1 1 1 1 1 1 1 1 1 1 1 1 1 1 1 1 1 1 1 1 1 1 1 1 1 1 1 1 1 1 1 1 1 1 1 1 1 1 1 1 1 1 1 1 1 1 1 1 1 1 1 1 1 1 1 1 1 1 1 1 1 1 1 1 1 1 1 1 1 1 1 1 1 1 1 1 1 1 1 1 1 1 1 1 1 1 1 1 1 1 1 1 1 1 1 1 1 1 1 1 1 1 1 1 1 1 1 1 1 1 1 1 1 1 1 1 1 1 1 1 1 1 1 1 1 1 1 1 1 1 1 1 1 1 1 1 1 1 1 1 1 1 1 1 1 1 1 1 1 1 1 1 1 1 1 1 1 1 1 1 1 1 1 1 1 1 1 1 1 1 1 1 1 1 1 1 1 1 1 1 1 1 1 1 1 1 1 1 1 1 1 1 1 1 1 1 1 1 1 1 1 1 1 1 1 1 1 1 1 1 1 1 1 1 1 1 1 1 1 1 1 1 1 1 1 1 1 1 1 1 1 1 1 1 1 1 1 1 1 1 1 1 1 1 1 1 1 1 1 1 1 1 1 1 1 1 1 1 1 1 1 1 1 1 1 1 1 1 1 1 1 1 1 1 1 1 1 1 1 1 1 1 1 1 1 1 1 1 1 1 1 1 1 1 1 1 1 1 1 1 1 1 1 1 1 1 1 1 1 1 1 1 1 1 1 1 1 1 1 1 1 1 1 1 1 1 1 1 1 1 1 1 1 1 1 1 1 1 1 1 1 1 1 1 1 1 1 1 1 1 1 1 1 1 1 1 1 1 1 1 1 1 1 1 1 1 1 1 1 1 1 1 1 1 1 1 1 1 1 1 1 1 1 1 1 1 1 1 1 1 1 1 1 1 1 1 1 1 1 1 1 1 1 1 1 1 1 1 1 1 1 1 1 1 1 1 1 1 1 1 1 1 1 1 1 1 1 1 1 1 1 1 1 1 1 1 1 1 1 1 1 1 1 1 1 1 1 1 1 1 1 1 1 1 1 1 1 1 1 1 1 1 1 1 1 1 1 1 1 1 1 1 1 1 1 1 1 1 1 1 1 1 1 1 1 1 1 1 1 1 1 1 1 1 1 1 1 1 1 1 1 1 1 1 1 1 1 1 1 1 1 1 1 1 1 1 1 1 1 1 1 1 1 1 1 1 1 1 1 1 1 1 1 1 1 1 1 1 1 1 1 1 1 1 1 1 1 1 1 1 1 1 1 1 1 1 1 1 1 1 1 1 1 1 
</DataArray>
<DataArray Name="FiberAngle" format="ascii" type="Float64">
45 45 45 45 45 45 45 45 45 45 45 45 45 45 45 45 45 45 45 45 45 45 45 45 45 45 45 45 45 45 45 45 45 45 45 45 45 45 45 45 45 45 45 45 45 45 45 45 45 45 45 45 45 45 45 45 45 45 45 45 45 45 45 45 90 90 90 90 90 90 90 90 90 90 90 90 90 90 90 90 90 90 90 90 90 90 90 90 90 90 90 90 90 90 90 90 90 90 90 90 90 90 90 90 90 90 90 90 90 90 90 90 90 90 90 90 90 90 90 90 90 90 90 90 90 90 90 90 90 90 90 90 90 90 90 90 90 90 90 90 90 90 90 90 0 0 0 0 0 0 0 0 0 0 0 0 0 0 0 0 0 0 0 0 0 0 0 0 0 0 0 0 0 0 0 0 0 0 0 0 0 0 0 0 0 0 0 0 0 0 0 0 0 0 0 0 0 0 0 0 0 0 0 0 0 0 0 0 0 0 0 0 0 0 0 0 0 0 0 0 0 0 0 0 -45 -45 -45 -45 -45 -45 -45 -45 -45 -45 -45 -45 -45 -45 -45 -45 -45 -45 -45 -45 -45 -45 -45 -45 -45 -45 -45 -45 -45 -45 -45 -45 -45 -45 -45 -45 -45 -45 -45 -45 -45 -45 -45 -45 -45 -45 -45 -45 -45 -45 -45 -45 -45 -45 -45 -45 -45 -45 -45 -45 -45 -45 -45 -45 0 0 0 0 0 0 0 0 0 0 0 0 0 0 0 0 0 0 0 0 0 0 0 0 0 0 0 0 0 0 0 0 0 0 0 0 0 0 0 0 0 0 0 0 0 0 0 0 0 0 0 0 0 0 0 0 0 0 0 0 0 0 0 0 0 0 0 0 0 0 0 0 0 0 0 0 0 0 0 0 90 90 90 90 90 90 90 90 90 90 90 90 90 90 90 90 90 90 90 90 90 90 90 90 90 90 90 90 90 90 90 90 90 90 90 90 90 90 90 90 90 90 90 90 90 90 90 90 90 90 90 90 90 90 90 90 90 90 90 90 90 90 90 90 90 90 90 90 90 90 90 90 90 90 90 90 90 90 90 90 45 45 45 45 45 45 45 45 45 45 45 45 45 45 45 45 45 45 45 45 45 45 45 45 45 45 45 45 45 45 45 45 45 45 45 45 45 45 45 45 45 45 45 45 45 45 45 45 45 45 45 45 45 45 45 45 45 45 45 45 45 45 45 45 -45 -45 -45 -45 -45 -45 -45 -45 -45 -45 -45 -45 -45 -45 -45 -45 -45 -45 -45 -45 -45 -45 -45 -45 -45 -45 -45 -45 -45 -45 -45 -45 -45 -45 -45 -45 -45 -45 -45 -45 -45 -45 -45 -45 -45 -45 -45 -45 -45 -45 -45 -45 -45 -45 -45 -45 -45 -45 -45 -45 -45 -45 -45 -45 
</DataArray>
</CellData>
<Points>
<DataArray NumberOfComponents="3" format="ascii" type="Float64">
1 0.3 0 1 -0.3 0 1.01472 0.299639 0 1.0294 0.298555 0 1.04402 0.296753 0 1.05853 0.294236 0 1.07289 0.291009 0 1.08709 0.287082 0 1.10107 0.282463 0 1.11481 0.277164 0 1.12827 0.271197 0 1.14142 0.264576 0 1.15423 0.257319 0 1.16667 0.249441 0 1.17871 0.240962 0 1.19032 0.231903 0 1.20147 0.222285 0 1.21213 0.212132 0 1.22229 0.201468 0 1.2319 0.190318 0 1.24096 0.17871 0 1.24944 0.166671 0 1.25732 0.154231 0 1.26458 0.141419 0 1.2712 0.128267 0 1.27716 0.114805 0 1.28246 0.101067 0 1.28708 0.087085 0 1.29101 0.072894 0 1.29424 0.058527 0 1.29675 0.044019 0 1.29855 0.029405 0 1.29964 0.01472 0 1.3 0 0 1.29964 -0.01472 0 1.29855 -0.029405 0 1.29675 -0.044019 0 1.29424 -0.058527 0 1.29101 -0.072894 0 1.28708 -0.087085 0 1.28246 -0.101067 0 1.27716 -0.114805 0 1.2712 -0.128267 0 1.26458 -0.141419 0 1.25732 -0.154231 0 1.24944 -0.166671 0 1.24096 -0.17871 0 1.2319 -0.190318 0 1.22229 -0.201468 0 1.21213 -0.212132 0 1.20147 -0.222285 0 1.19032 -0.231903 0 1.17871 -0.240962 0 1.16667 -0.249441 0 1.15423 -0.257319 0 1.14142 -0.264576 0 1.12827 -0.271197 0 1.11481 -0.277164 0 1.10107 -0.282463 0 1.08709 -0.287082 0 1.07289 -0.291009 0 1.05853 -0.294236 0 1.04402 -0.296753 0 1.0294 -0.298555 0 1.01472 -0.299639 0 1 -0.4 0 1 -0.325 0 1 -0.35 0 1 -0.375 0 1 0.4 0 1.01963 0.399518 0 1.03921 0.398074 0 1.05869 0.395671 0 1.07804 0.392314 0 1.09719 0.388013 0 1.11611 0.382776 0 1.13476 0.376618 0 1.15307 0.369552 0 1.17102 0.361596 0 1.18856 0.352769 0 1.20564 0.343091 0 1.22223 0.332588 0 1.23828 0.321283 0 1.25376 0.309204 0 1.26862 0.29638 0 1.28284 0.282843 0 1.29638 0.268624 0 1.3092 0.253757 0 1.32128 0.23828 0 1.33259 0.222228 0 1.34309 0.205641 0 1.35277 0.188559 0 1.3616 0.171022 0 1.36955 0.153073 0 1.37662 0.134756 0 1.38278 0.116114 0 1.38801 0.097192 0 1.39231 0.078036 0 1.39567 0.058692 0 1.39807 0.039207 0 1.39952 0.019627 0 1.4 0 0 1.39952 -0.019627 0 1.39807 -0.039207 0 1.39567 -0.058692 0 1.39231 -0.078036 0 1.38801 -0.097192 0 1.38278 -0.116114 0 1.37662 -0.134756 0 1.36955 -0.153073 0 1.3616 -0.171022 0 1.35277 -0.188559 0 1.34309 -0.205641 0 1.33259 -0.222228 0 1.32128 -0.23828 0 1.3092 -0.253757 0 1.29638 -0.268624 0 1.28284 -0.282843 0 1.26862 -0.29638 0 1.25376 -0.309204 0 1.23828 -0.321283 0 1.22223 -0.332588 0 1.20564 -0.343091 0 1.18856 -0.352769 0 1.17102 -0.361596 0 1.15307 -0.369552 0 1.13476 -0.376618 0 1.11611 -0.382776 0 1.09719 -0.388013 0 1.07804 -0.392314 0 1.05869 -0.395671 0 1.03921 -0.398074 0 1.01963 -0.399518 0 1 0.325 0 1 0.35 0 1 0.375 0 1.01717 0.349578 0 1.03186 0.323435 0 1.03431 0.348315 0 1.03676 0.373194 0 1.05136 0.346212 0 1.0634 0.318755 0 1.06828 0.343275 0 1.07316 0.367794 0 1.08504 0.339511 0 1.09434 0.311006 0 1.1016 0.334929 0 1.10886 0.358853 0 1.11791 0.32954 0 1.12437 0.300261 0 1.13394 0.323358 0 1.14351 0.346455 0 1.14964 0.316396 0 1.1532 0.286624 0 1.16499 0.308672 0 1.17677 0.33072 0 1.17994 0.300205 0 1.18056 0.270228 0 1.19445 0.291014 0 1.20834 0.311801 0 1.2085 0.281123 0 1.20618 0.251228 0 1.22204 0.270554 0 1.2379 0.289879 0 1.23505 0.259333 0 1.22981 0.22981 0 1.24749 0.247487 0 1.26517 0.265165 0 1.25933 0.235046 0 1.25123 0.206178 0 1.27055 0.222038 0 1.28988 0.237897 0 1.28112 0.208495 0 1.27023 0.18056 0 1.29101 0.19445 0 1.3118 0.208339 0 1.30021 0.179936 0 1.28662 0.153204 0 1.30867 0.164989 0 1.33072 0.176774 0 1.3164 0.149644 0 1.30026 0.124372 0 1.32336 0.133939 0 1.34645 0.143506 0 1.32954 0.117911 0 1.31101 0.094343 0 1.33493 0.1016 0 1.35885 0.108857 0 1.33951 0.085043 0 1.31875 0.063404 0 1.34327 0.068282 0 1.36779 0.073159 0 1.34621 0.051356 0 1.32343 0.031856 0 1.34831 0.034306 0 1.37319 0.036756 0 1.34958 0.017174 0 1.325 0 0 1.35 0 0 1.375 0 0 1.34958 -0.017174 0 1.32343 -0.031856 0 1.34831 -0.034306 0 1.37319 -0.036756 0 1.34621 -0.051356 0 1.31875 -0.063404 0 1.34327 -0.068282 0 1.36779 -0.073159 0 1.33951 -0.085043 0 1.31101 -0.094343 0 1.33493 -0.1016 0 1.35885 -0.108857 0 1.32954 -0.117911 0 1.30026 -0.124372 0 1.32336 -0.133939 0 1.34645 -0.143506 0 1.3164 -0.149644 0 1.28662 -0.153204 0 1.30867 -0.164989 0 1.33072 -0.176774 0 1.30021 -0.179936 0 1.27023 -0.18056 0 1.29101 -0.19445 0 1.3118 -0.208339 0 1.28112 -0.208495 0 1.25123 -0.206178 0 1.27055 -0.222038 0 1.28988 -0.237897 0 1.25933 -0.235046 0 1.22981 -0.22981 0 1.24749 -0.247487 0 1.26517 -0.265165 0 1.23505 -0.259333 0 1.20618 -0.251228 0 1.22204 -0.270554 0 1.2379 -0.289879 0 1.2085 -0.281123 0 1.18056 -0.270228 0 1.19445 -0.291014 0 1.20834 -0.311801 0 1.17994 -0.300205 0 1.1532 -0.286624 0 1.16499 -0.308672 0 1.17677 -0.33072 0 1.14964 -0.316396 0 1.12437 -0.300261 0 1.13394 -0.323358 0 1.14351 -0.346455 0 1.11791 -0.32954 0 1.09434 -0.311006 0 1.1016 -0.334929 0 1.10886 -0.358853 0 1.08504 -0.339511 0 1.0634 -0.318755 0 1.06828 -0.343275 0 1.07316 -0.367794 0 1.05136 -0.346212 0 1.03186 -0.323435 0 1.03431 -0.348315 0 1.03676 -0.373194 0 1.01717 -0.349578 0 -1 0.3 0 0.975 0.3 0 0.95 0.3 0 0.925 0.3 0 0.9 0.3 0 0.875 0.3 0 0.85 0.3 0 0.825 0.3 0 0.8 0.3 0 0.775 0.3 0 0.75 0.3 0 0.725 0.3 0 0.7 0.3 0 0.675 0.3 0 0.65 0.3 0 0.625 0.3 0 0.6 0.3 0 0.575 0.3 0 0.55 0.3 0 0.525 0.3 0 0.5 0.3 0 0.475 0.3 0 0.45 0.3 0 0.425 0.3 0 0.4 0.3 0 0.375 0.3 0 0.35 0.3 0 0.325 0.3 0 0.3 0.3 0 0.275 0.3 0 0.25 0.3 0 0.225 0.3 0 0.2 0.3 0 0.175 0.3 0 0.15 0.3 0 0.125 0.3 0 0.1 0.3 0 0.075 0.3 0 0.05 0.3 0 0.025 0.3 0 0 0.3 0 -0.025 0.3 0 -0.05 0.3 0 -0.075 0.3 0 -0.1 0.3 0 -0.125 0.3 0 -0.15 0.3 0 -0.175 0.3 0 -0.2 0.3 0 -0.225 0.3 0 -0.25 0.3 0 -0.275 0.3 0 -0.3 0.3 0 -0.325 0.3 0 -0.35 0.3 0 -0.375 0.3 0 -0.4 0.3 0 -0.425 0.3 0 -0.45 0.3 0 -0.475 0.3 0 -0.5 0.3 0 -0.525 0.3 0 -0.55 0.3 0 -0.575 0.3 0 -0.6 0.3 0 -0.625 0.3 0 -0.65 0.3 0 -0.675 0.3 0 -0.7 0.3 0 -0.725 0.3 0 -0.75 0.3 0 -0.775 0.3 0 -0.8 0.3 0 -0.825 0.3 0 -0.85 0.3 0 -0.875 0.3 0 -0.9 0.3 0 -0.925 0.3 0 -0.95 0.3 0 -0.975 0.3 0 -1 0.4 0 -0.975 0.4 0 -0.95 0.4 0 -0.925 0.4 0 -0.9 0.4 0 -0.875 0.4 0 -0.85 0.4 0 -0.825 0.4 0 -0.8 0.4 0 -0.775 0.4 0 -0.75 0.4 0 -0.725 0.4 0 -0.7 0.4 0 -0.675 0.4 0 -0.65 0.4 0 -0.625 0.4 0 -0.6 0.4 0 -0.575 0.4 0 -0.55 0.4 0 -0.525 0.4 0 -0.5 0.4 0 -0.475 0.4 0 -0.45 0.4 0 -0.425 0.4 0 -0.4 0.4 0 -0.375 0.4 0 -0.35 0.4 0 -0.325 0.4 0 -0.3 0.4 0 -0.275 0.4 0 -0.25 0.4 0 -0.225 0.4 0 -0.2 0.4 0 -0.175 0.4 0 -0.15 0.4 0 -0.125 0.4 0 -0.1 0.4 0 -0.075 0.4 0 -0.05 0.4 0 -0.025 0.4 0 0 0.4 0 0.025 0.4 0 0.05 0.4 0 0.075 0.4 0 0.1 0.4 0 0.125 0.4 0 0.15 0.4 0 0.175 0.4 0 0.2 0.4 0 0.225 0.4 0 0.25 0.4 0 0.275 0.4 0 0.3 0.4 0 0.325 0.4 0 0.35 0.4 0 0.375 0.4 0 0.4 0.4 0 0.425 0.4 0 0.45 0.4 0 0.475 0.4 0 0.5 0.4 0 0.525 0.4 0 0.55 0.4 0 0.575 0.4 0 0.6 0.4 0 0.625 0.4 0 0.65 0.4 0 0.675 0.4 0 0.7 0.4 0 0.725 0.4 0 0.75 0.4 0 0.775 0.4 0 0.8 0.4 0 0.825 0.4 0 0.85 0.4 0 0.875 0.4 0 0.9 0.4 0 0.925 0.4 0 0.95 0.4 0 0.975 0.4 0 -1 0.325 0 -1 0.35 0 -1 0.375 0 -0.975 0.35 0 -0.95 0.325 0 -0.95 0.35 0 -0.95 0.375 0 -0.925 0.35 0 -0.9 0.325 0 -0.9 0.35 0 -0.9 0.375 0 -0.875 0.35 0 -0.85 0.325 0 -0.85 0.35 0 -0.85 0.375 0 -0.825 0.35 0 -0.8 0.325 0 -0.8 0.35 0 -0.8 0.375 0 -0.775 0.35 0 -0.75 0.325 0 -0.75 0.35 0 -0.75 0.375 0 -0.725 0.35 0 -0.7 0.325 0 -0.7 0.35 0 -0.7 0.375 0 -0.675 0.35 0 -0.65 0.325 0 -0.65 0.35 0 -0.65 0.375 0 -0.625 0.35 0 -0.6 0.325 0 -0.6 0.35 0 -0.6 0.375 0 -0.575 0.35 0 -0.55 0.325 0 -0.55 0.35 0 -0.55 0.375 0 -0.525 0.35 0 -0.5 0.325 0 -0.5 0.35 0 -0.5 0.375 0 -0.475 0.35 0 -0.45 0.325 0 -0.45 0.35 0 -0.45 0.375 0 -0.425 0.35 0 -0.4 0.325 0 -0.4 0.35 0 -0.4 0.375 0 -0.375 0.35 0 -0.35 0.325 0 -0.35 0.35 0 -0.35 0.375 0 -0.325 0.35 0 -0.3 0.325 0 -0.3 0.35 0 -0.3 0.375 0 -0.275 0.35 0 -0.25 0.325 0 -0.25 0.35 0 -0.25 0.375 0 -0.225 0.35 0 -0.2 0.325 0 -0.2 0.35 0 -0.2 0.375 0 -0.175 0.35 0 -0.15 0.325 0 -0.15 0.35 0 -0.15 0.375 0 -0.125 0.35 0 -0.1 0.325 0 -0.1 0.35 0 -0.1 0.375 0 -0.075 0.35 0 -0.05 0.325 0 -0.05 0.35 0 -0.05 0.375 0 -0.025 0.35 0 0 0.325 0 0 0.35 0 0 0.375 0 0.025 0.35 0 0.05 0.325 0 0.05 0.35 0 0.05 0.375 0 0.075 0.35 0 0.1 0.325 0 0.1 0.35 0 0.1 0.375 0 0.125 0.35 0 0.15 0.325 0 0.15 0.35 0 0.15 0.375 0 0.175 0.35 0 0.2 0.325 0 0.2 0.35 0 0.2 0.375 0 0.225 0.35 0 0.25 0.325 0 0.25 0.35 0 0.25 0.375 0 0.275 0.35 0 0.3 0.325 0 0.3 0.35 0 0.3 0.375 0 0.325 0.35 0 0.35 0.325 0 0.35 0.35 0 0.35 0.375 0 0.375 0.35 0 0.4 0.325 0 0.4 0.35 0 0.4 0.375 0 0.425 0.35 0 0.45 0.325 0 0.45 0.35 0 0.45 0.375 0 0.475 0.35 0 0.5 0.325 0 0.5 0.35 0 0.5 0.375 0 0.525 0.35 0 0.55 0.325 0 0.55 0.35 0 0.55 0.375 0 0.575 0.35 0 0.6 0.325 0 0.6 0.35 0 0.6 0.375 0 0.625 0.35 0 0.65 0.325 0 0.65 0.35 0 0.65 0.375 0 0.675 0.35 0 0.7 0.325 0 0.7 0.35 0 0.7 0.375 0 0.725 0.35 0 0.75 0.325 0 0.75 0.35 0 0.75 0.375 0 0.775 0.35 0 0.8 0.325 0 0.8 0.35 0 0.8 0.375 0 0.825 0.35 0 0.85 0.325 0 0.85 0.35 0 0.85 0.375 0 0.875 0.35 0 0.9 0.325 0 0.9 0.35 0 0.9 0.375 0 0.925 0.35 0 0.95 0.325 0 0.95 0.35 0 0.95 0.375 0 0.975 0.35 0 1 -0.5 0 -1 -0.5 0 0.975 -0.5 0 0.95 -0.5 0 0.925 -0.5 0 0.9 -0.5 0 0.875 -0.5 0 0.85 -0.5 0 0.825 -0.5 0 0.8 -0.5 0 0.775 -0.5 0 0.75 -0.5 0 0.725 -0.5 0 0.7 -0.5 0 0.675 -0.5 0 0.65 -0.5 0 0.625 -0.5 0 0.6 -0.5 0 0.575 -0.5 0 0.55 -0.5 0 0.525 -0.5 0 0.5 -0.5 0 0.475 -0.5 0 0.45 -0.5 0 0.425 -0.5 0 0.4 -0.5 0 0.375 -0.5 0 0.35 -0.5 0 0.325 -0.5 0 0.3 -0.5 0 0.275 -0.5 0 0.25 -0.5 0 0.225 -0.5 0 0.2 -0.5 0 0.175 -0.5 0 0.15 -0.5 0 0.125 -0.5 0 0.1 -0.5 0 0.075 -0.5 0 0.05 -0.5 0 0.025 -0.5 0 0 -0.5 0 -0.025 -0.5 0 -0.05 -0.5 0 -0.075 -0.5 0 -0.1 -0.5 0 -0.125 -0.5 0 -0.15 -0.5 0 -0.175 -0.5 0 -0.2 -0.5 0 -0.225 -0.5 0 -0.25 -0.5 0 -0.275 -0.5 0 -0.3 -0.5 0 -0.325 -0.5 0 -0.35 -0.5 0 -0.375 -0.5 0 -0.4 -0.5 0 -0.425 -0.5 0 -0.45 -0.5 0 -0.475 -0.5 0 -0.5 -0.5 0 -0.525 -0.5 0 -0.55 -0.5 0 -0.575 -0.5 0 -0.6 -0.5 0 -0.625 -0.5 0 -0.65 -0.5 0 -0.675 -0.5 0 -0.7 -0.5 0 -0.725 -0.5 0 -0.75 -0.5 0 -0.775 -0.5 0 -0.8 -0.5 0 -0.825 -0.5 0 -0.85 -0.5 0 -0.875 -0.5 0 -0.9 -0.5 0 -0.925 -0.5 0 -0.95 -0.5 0 -0.975 -0.5 0 1 -0.475 0 1 -0.45 0 1 -0.425 0 -1 -0.4 0 0.975 -0.4 0 0.95 -0.4 0 0.925 -0.4 0 0.9 -0.4 0 0.875 -0.4 0 0.85 -0.4 0 0.825 -0.4 0 0.8 -0.4 0 0.775 -0.4 0 0.75 -0.4 0 0.725 -0.4 0 0.7 -0.4 0 0.675 -0.4 0 0.65 -0.4 0 0.625 -0.4 0 0.6 -0.4 0 0.575 -0.4 0 0.55 -0.4 0 0.525 -0.4 0 0.5 -0.4 0 0.475 -0.4 0 0.45 -0.4 0 0.425 -0.4 0 0.4 -0.4 0 0.375 -0.4 0 0.35 -0.4 0 0.325 -0.4 0 0.3 -0.4 0 0.275 -0.4 0 0.25 -0.4 0 0.225 -0.4 0 0.2 -0.4 0 0.175 -0.4 0 0.15 -0.4 0 0.125 -0.4 0 0.1 -0.4 0 0.075 -0.4 0 0.05 -0.4 0 0.025 -0.4 0 0 -0.4 0 -0.025 -0.4 0 -0.05 -0.4 0 -0.075 -0.4 0 -0.1 -0.4 0 -0.125 -0.4 0 -0.15 -0.4 0 -0.175 -0.4 0 -0.2 -0.4 0 -0.225 -0.4 0 -0.25 -0.4 0 -0.275 -0.4 0 -0.3 -0.4 0 -0.325 -0.4 0 -0.35 -0.4 0 -0.375 -0.4 0 -0.4 -0.4 0 -0.425 -0.4 0 -0.45 -0.4 0 -0.475 -0.4 0 -0.5 -0.4 0 -0.525 -0.4 0 -0.55 -0.4 0 -0.575 -0.4 0 -0.6 -0.4 0 -0.625 -0.4 0 -0.65 -0.4 0 -0.675 -0.4 0 -0.7 -0.4 0 -0.725 -0.4 0 -0.75 -0.4 0 -0.775 -0.4 0 -0.8 -0.4 0 -0.825 -0.4 0 -0.85 -0.4 0 -0.875 -0.4 0 -0.9 -0.4 0 -0.925 -0.4 0 -0.95 -0.4 0 -0.975 -0.4 0 -1 -0.475 0 -1 -0.45 0 -1 -0.425 0 -0.975 -0.45 0 -0.95 -0.475 0 -0.95 -0.45 0 -0.95 -0.425 0 -0.925 -0.45 0 -0.9 -0.475 0 -0.9 -0.45 0 -0.9 -0.425 0 -0.875 -0.45 0 -0.85 -0.475 0 -0.85 -0.45 0 -0.85 -0.425 0 -0.825 -0.45 0 -0.8 -0.475 0 -0.8 -0.45 0 -0.8 -0.425 0 -0.775 -0.45 0 -0.75 -0.475 0 -0.75 -0.45 0 -0.75 -0.425 0 -0.725 -0.45 0 -0.7 -0.475 0 -0.7 -0.45 0 -0.7 -0.425 0 -0.675 -0.45 0 -0.65 -0.475 0 -0.65 -0.45 0 -0.65 -0.425 0 -0.625 -0.45 0 -0.6 -0.475 0 -0.6 -0.45 0 -0.6 -0.425 0 -0.575 -0.45 0 -0.55 -0.475 0 -0.55 -0.45 0 -0.55 -0.425 0 -0.525 -0.45 0 -0.5 -0.475 0 -0.5 -0.45 0 -0.5 -0.425 0 -0.475 -0.45 0 -0.45 -0.475 0 -0.45 -0.45 0 -0.45 -0.425 0 -0.425 -0.45 0 -0.4 -0.475 0 -0.4 -0.45 0 -0.4 -0.425 0 -0.375 -0.45 0 -0.35 -0.475 0 -0.35 -0.45 0 -0.35 -0.425 0 -0.325 -0.45 0 -0.3 -0.475 0 -0.3 -0.45 0 -0.3 -0.425 0 -0.275 -0.45 0 -0.25 -0.475 0 -0.25 -0.45 0 -0.25 -0.425 0 -0.225 -0.45 0 -0.2 -0.475 0 -0.2 -0.45 0 -0.2 -0.425 0 -0.175 -0.45 0 -0.15 -0.475 0 -0.15 -0.45 0 -0.15 -0.425 0 -0.125 -0.45 0 -0.1 -0.475 0 -0.1 -0.45 0 -0.1 -0.425 0 -0.075 -0.45 0 -0.05 -0.475 0 -0.05 -0.45 0 -0.05 -0.425 0 -0.025 -0.45 0 0 -0.475 0 0 -0.45 0 0 -0.425 0 0.025 -0.45 0 0.05 -0.475 0 0.05 -0.45 0 0.05 -0.425 0 0.075 -0.45 0 0.1 -0.475 0 0.1 -0.45 0 0.1 -0.425 0 0.125 -0.45 0 0.15 -0.475 0 0.15 -0.45 0 0.15 -0.425 0 0.175 -0.45 0 0.2 -0.475 0 0.2 -0.45 0 0.2 -0.425 0 0.225 -0.45 0 0.25 -0.475 0 0.25 -0.45 0 0.25 -0.425 0 0.275 -0.45 0 0.3 -0.475 0 0.3 -0.45 0 0.3 -0.425 0 0.325 -0.45 0 0.35 -0.475 0 0.35 -0.45 0 0.35 -0.425 0 0.375 -0.45 0 0.4 -0.475 0 0.4 -0.45 0 0.4 -0.425 0 0.425 -0.45 0 0.45 -0.475 0 0.45 -0.45 0 0.45 -0.425 0 0.475 -0.45 0 0.5 -0.475 0 0.5 -0.45 0 0.5 -0.425 0 0.525 -0.45 0 0.55 -0.475 0 0.55 -0.45 0 0.55 -0.425 0 0.575 -0.45 0 0.6 -0.475 0 0.6 -0.45 0 0.6 -0.425 0 0.625 -0.45 0 0.65 -0.475 0 0.65 -0.45 0 0.65 -0.425 0 0.675 -0.45 0 0.7 -0.475 0 0.7 -0.45 0 0.7 -0.425 0 0.725 -0.45 0 0.75 -0.475 0 0.75 -0.45 0 0.75 -0.425 0 0.775 -0.45 0 0.8 -0.475 0 0.8 -0.45 0 0.8 -0.425 0 0.825 -0.45 0 0.85 -0.475 0 0.85 -0.45 0 0.85 -0.425 0 0.875 -0.45 0 0.9 -0.475 0 0.9 -0.45 0 0.9 -0.425 0 0.925 -0.45 0 0.95 -0.475 0 0.95 -0.45 0 0.95 -0.425 0 0.975 -0.45 0 -1 0.5 0 -1.02453 0.499398 0 -1.04901 0.497592 0 -1.07336 0.494588 0 -1.09754 0.490393 0 -1.12149 0.485016 0 -1.14514 0.47847 0 -1.16844 0.470772 0 -1.19134 0.46194 0 -1.21378 0.451995 0 -1.2357 0.440961 0 -1.25705 0.428864 0 -1.27778 0.415735 0 -1.29785 0.401604 0 -1.3172 0.386505 0 -1.33578 0.370476 0 -1.35355 0.353553 0 -1.37048 0.335779 0 -1.38651 0.317197 0 -1.4016 0.29785 0 -1.41573 0.277785 0 -1.42886 0.257051 0 -1.44096 0.235698 0 -1.45199 0.213778 0 -1.46194 0.191342 0 -1.47077 0.168445 0 -1.47847 0.145142 0 -1.48502 0.12149 0 -1.49039 0.097545 0 -1.49459 0.073365 0 -1.49759 0.049009 0 -1.4994 0.024534 0 -1.5 0 0 -1.4994 -0.024534 0 -1.49759 -0.049009 0 -1.49459 -0.073365 0 -1.49039 -0.097545 0 -1.48502 -0.12149 0 -1.47847 -0.145142 0 -1.47077 -0.168445 0 -1.46194 -0.191342 0 -1.45199 -0.213778 0 -1.44096 -0.235698 0 -1.42886 -0.257051 0 -1.41573 -0.277785 0 -1.4016 -0.29785 0 -1.38651 -0.317197 0 -1.37048 -0.335779 0 -1.35355 -0.353553 0 -1.33578 -0.370476 0 -1.3172 -0.386505 0 -1.29785 -0.401604 0 -1.27778 -0.415735 0 -1.25705 -0.428864 0 -1.2357 -0.440961 0 -1.21378 -0.451995 0 -1.19134 -0.46194 0 -1.16844 -0.470772 0 -1.14514 -0.47847 0 -1.12149 -0.485016 0 -1.09754 -0.490393 0 -1.07336 -0.494588 0 -1.04901 -0.497592 0 -1.02453 -0.499398 0 -1.01963 0.399518 0 -1.03921 0.398074 0 -1.05869 0.395671 0 -1.07804 0.392314 0 -1.09719 0.388013 0 -1.11611 0.382776 0 -1.13476 0.376618 0 -1.15307 0.369552 0 -1.17102 0.361596 0 -1.18856 0.352769 0 -1.20564 0.343091 0 -1.22223 0.332588 0 -1.23828 0.321283 0 -1.25376 0.309204 0 -1.26862 0.29638 0 -1.28284 0.282843 0 -1.29638 0.268624 0 -1.3092 0.253757 0 -1.32128 0.23828 0 -1.33259 0.222228 0 -1.34309 0.205641 0 -1.35277 0.188559 0 -1.3616 0.171022 0 -1.36955 0.153073 0 -1.37662 0.134756 0 -1.38278 0.116114 0 -1.38801 0.097192 0 -1.39231 0.078036 0 -1.39567 0.058692 0 -1.39807 0.039207 0 -1.39952 0.019627 0 -1.4 0 0 -1.39952 -0.019627 0 -1.39807 -0.039207 0 -1.39567 -0.058692 0 -1.39231 -0.078036 0 -1.38801 -0.097192 0 -1.38278 -0.116114 0 -1.37662 -0.134756 0 -1.36955 -0.153073 0 -1.3616 -0.171022 0 -1.35277 -0.188559 0 -1.34309 -0.205641 0 -1.33259 -0.222228 0 -1.32128 -0.23828 0 -1.3092 -0.253757 0 -1.29638 -0.268624 0 -1.28284 -0.282843 0 -1.26862 -0.29638 0 -1.25376 -0.309204 0 -1.23828 -0.321283 0 -1.22223 -0.332588 0 -1.20564 -0.343091 0 -1.18856 -0.352769 0 -1.17102 -0.361596 0 -1.15307 -0.369552 0 -1.13476 -0.376618 0 -1.11611 -0.382776 0 -1.09719 -0.388013 0 -1.07804 -0.392314 0 -1.05869 -0.395671 0 -1.03921 -0.398074 0 -1.01963 -0.399518 0 -1 0.475 0 -1 0.45 0 -1 0.425 0 -1.02208 0.449458 0 -1.04656 0.472713 0 -1.04411 0.447833 0 -1.04166 0.422954 0 -1.06603 0.445129 0 -1.09267 0.465873 0 -1.08779 0.441353 0 -1.08291 0.416834 0 -1.10934 0.436514 0 -1.13789 0.454547 0 -1.13063 0.430623 0 -1.12337 0.4067 0 -1.1516 0.423695 0 -1.18178 0.438843 0 -1.17221 0.415746 0 -1.16264 0.392649 0 -1.1924 0.406795 0 -1.22391 0.418913 0 -1.21213 0.396865 0 -1.20034 0.374817 0 -1.23135 0.385978 0 -1.2639 0.394948 0 -1.25001 0.374161 0 -1.23612 0.353375 0 -1.26806 0.361443 0 -1.30134 0.36718 0 -1.28548 0.347855 0 -1.26962 0.328529 0 -1.3022 0.333428 0 -1.33588 0.335876 0 -1.3182 0.318198 0 -1.30052 0.30052 0 -1.33343 0.302202 0 -1.36718 0.301337 0 -1.34786 0.285477 0 -1.32853 0.269617 0 -1.36144 0.268065 0 -1.39495 0.263896 0 -1.37416 0.250007 0 -1.35337 0.236117 0 -1.38598 0.231346 0 -1.41891 0.223913 0 -1.39687 0.212129 0 -1.37482 0.200344 0 -1.4068 0.1924 0 -1.43884 0.181775 0 -1.41575 0.172208 0 -1.39265 0.16264 0 -1.42369 0.1516 0 -1.45455 0.137885 0 -1.43062 0.130628 0 -1.4067 0.123371 0 -1.43651 0.109341 0 -1.46587 0.092668 0 -1.44135 0.087791 0 -1.41683 0.082913 0 -1.44513 0.066029 0 -1.47271 0.046558 0 -1.44783 0.044108 0 -1.42295 0.041657 0 -1.44946 0.02208 0 -1.475 0 0 -1.45 0 0 -1.425 0 0 -1.44946 -0.02208 0 -1.47271 -0.046558 0 -1.44783 -0.044108 0 -1.42295 -0.041657 0 -1.44513 -0.066029 0 -1.46587 -0.092668 0 -1.44135 -0.087791 0 -1.41683 -0.082913 0 -1.43651 -0.109341 0 -1.45455 -0.137885 0 -1.43062 -0.130628 0 -1.4067 -0.123371 0 -1.42369 -0.1516 0 -1.43884 -0.181775 0 -1.41575 -0.172208 0 -1.39265 -0.16264 0 -1.4068 -0.1924 0 -1.41891 -0.223913 0 -1.39687 -0.212129 0 -1.37482 -0.200344 0 -1.38598 -0.231346 0 -1.39495 -0.263896 0 -1.37416 -0.250007 0 -1.35337 -0.236117 0 -1.36144 -0.268065 0 -1.36718 -0.301337 0 -1.34786 -0.285477 0 -1.32853 -0.269617 0 -1.33343 -0.302202 0 -1.33588 -0.335876 0 -1.3182 -0.318198 0 -1.30052 -0.30052 0 -1.3022 -0.333428 0 -1.30134 -0.36718 0 -1.28548 -0.347855 0 -1.26962 -0.328529 0 -1.26806 -0.361443 0 -1.2639 -0.394948 0 -1.25001 -0.374161 0 -1.23612 -0.353375 0 -1.23135 -0.385978 0 -1.22391 -0.418913 0 -1.21213 -0.396865 0 -1.20034 -0.374817 0 -1.1924 -0.406795 0 -1.18178 -0.438843 0 -1.17221 -0.415746 0 -1.16264 -0.392649 0 -1.1516 -0.423695 0 -1.13789 -0.454547 0 -1.13063 -0.430623 0 -1.12337 -0.4067 0 -1.10934 -0.436514 0 -1.09267 -0.465873 0 -1.08779 -0.441353 0 -1.08291 -0.416834 0 -1.06603 -0.445129 0 -1.04656 -0.472713 0 -1.04411 -0.447833 0 -1.04166 -0.422954 0 -1.02208 -0.449458 0 1 0.5 0 1 0.475 0 1 0.45 0 1 0.425 0 0.975 0.5 0 0.95 0.5 0 0.925 0.5 0 0.9 0.5 0 0.875 0.5 0 0.85 0.5 0 0.825 0.5 0 0.8 0.5 0 0.775 0.5 0 0.75 0.5 0 0.725 0.5 0 0.7 0.5 0 0.675 0.5 0 0.65 0.5 0 0.625 0.5 0 0.6 0.5 0 0.575 0.5 0 0.55 0.5 0 0.525 0.5 0 0.5 0.5 0 0.475 0.5 0 0.45 0.5 0 0.425 0.5 0 0.4 0.5 0 0.375 0.5 0 0.35 0.5 0 0.325 0.5 0 0.3 0.5 0 0.275 0.5 0 0.25 0.5 0 0.225 0.5 0 0.2 0.5 0 0.175 0.5 0 0.15 0.5 0 0.125 0.5 0 0.1 0.5 0 0.075 0.5 0 0.05 0.5 0 0.025 0.5 0 0 0.5 0 -0.025 0.5 0 -0.05 0.5 0 -0.075 0.5 0 -0.1 0.5 0 -0.125 0.5 0 -0.15 0.5 0 -0.175 0.5 0 -0.2 0.5 0 -0.225 0.5 0 -0.25 0.5 0 -0.275 0.5 0 -0.3 0.5 0 -0.325 0.5 0 -0.35 0.5 0 -0.375 0.5 0 -0.4 0.5 0 -0.425 0.5 0 -0.45 0.5 0 -0.475 0.5 0 -0.5 0.5 0 -0.525 0.5 0 -0.55 0.5 0 -0.575 0.5 0 -0.6 0.5 0 -0.625 0.5 0 -0.65 0.5 0 -0.675 0.5 0 -0.7 0.5 0 -0.725 0.5 0 -0.75 0.5 0 -0.775 0.5 0 -0.8 0.5 0 -0.825 0.5 0 -0.85 0.5 0 -0.875 0.5 0 -0.9 0.5 0 -0.925 0.5 0 -0.95 0.5 0 -0.975 0.5 0 0.95 0.425 0 0.9 0.425 0 0.85 0.425 0 0.8 0.425 0 0.75 0.425 0 0.7 0.425 0 0.65 0.425 0 0.6 0.425 0 0.55 0.425 0 0.5 0.425 0 0.45 0.425 0 0.4 0.425 0 0.35 0.425 0 0.3 0.425 0 0.25 0.425 0 0.2 0.425 0 0.15 0.425 0 0.1 0.425 0 0.05 0.425 0 0 0.425 0 -0.05 0.425 0 -0.1 0.425 0 -0.15 0.425 0 -0.2 0.425 0 -0.25 0.425 0 -0.3 0.425 0 -0.35 0.425 0 -0.4 0.425 0 -0.45 0.425 0 -0.5 0.425 0 -0.55 0.425 0 -0.6 0.425 0 -0.65 0.425 0 -0.7 0.425 0 -0.75 0.425 0 -0.8 0.425 0 -0.85 0.425 0 -0.9 0.425 0 -0.95 0.425 0 0.975 0.45 0 0.95 0.45 0 0.925 0.45 0 0.9 0.45 0 0.875 0.45 0 0.85 0.45 0 0.825 0.45 0 0.8 0.45 0 0.775 0.45 0 0.75 0.45 0 0.725 0.45 0 0.7 0.45 0 0.675 0.45 0 0.65 0.45 0 0.625 0.45 0 0.6 0.45 0 0.575 0.45 0 0.55 0.45 0 0.525 0.45 0 0.5 0.45 0 0.475 0.45 0 0.45 0.45 0 0.425 0.45 0 0.4 0.45 0 0.375 0.45 0 0.35 0.45 0 0.325 0.45 0 0.3 0.45 0 0.275 0.45 0 0.25 0.45 0 0.225 0.45 0 0.2 0.45 0 0.175 0.45 0 0.15 0.45 0 0.125 0.45 0 0.1 0.45 0 0.075 0.45 0 0.05 0.45 0 0.025 0.45 0 0 0.45 0 -0.025 0.45 0 -0.05 0.45 0 -0.075 0.45 0 -0.1 0.45 0 -0.125 0.45 0 -0.15 0.45 0 -0.175 0.45 0 -0.2 0.45 0 -0.225 0.45 0 -0.25 0.45 0 -0.275 0.45 0 -0.3 0.45 0 -0.325 0.45 0 -0.35 0.45 0 -0.375 0.45 0 -0.4 0.45 0 -0.425 0.45 0 -0.45 0.45 0 -0.475 0.45 0 -0.5 0.45 0 -0.525 0.45 0 -0.55 0.45 0 -0.575 0.45 0 -0.6 0.45 0 -0.625 0.45 0 -0.65 0.45 0 -0.675 0.45 0 -0.7 0.45 0 -0.725 0.45 0 -0.75 0.45 0 -0.775 0.45 0 -0.8 0.45 0 -0.825 0.45 0 -0.85 0.45 0 -0.875 0.45 0 -0.9 0.45 0 -0.925 0.45 0 -0.95 0.45 0 -0.975 0.45 0 0.95 0.475 0 0.9 0.475 0 0.85 0.475 0 0.8 0.475 0 0.75 0.475 0 0.7 0.475 0 0.65 0.475 0 0.6 0.475 0 0.55 0.475 0 0.5 0.475 0 0.45 0.475 0 0.4 0.475 0 0.35 0.475 0 0.3 0.475 0 0.25 0.475 0 0.2 0.475 0 0.15 0.475 0 0.1 0.475 0 0.05 0.475 0 0 0.475 0 -0.05 0.475 0 -0.1 0.475 0 -0.15 0.475 0 -0.2 0.475 0 -0.25 0.475 0 -0.3 0.475 0 -0.35 0.475 0 -0.4 0.475 0 -0.45 0.475 0 -0.5 0.475 0 -0.55 0.475 0 -0.6 0.475 0 -0.65 0.475 0 -0.7 0.475 0 -0.75 0.475 0 -0.8 0.475 0 -0.85 0.475 0 -0.9 0.475 0 -0.95 0.475 0 -1 -0.3 0 0.975 -0.3 0 0.95 -0.3 0 0.925 -0.3 0 0.9 -0.3 0 0.875 -0.3 0 0.85 -0.3 0 0.825 -0.3 0 0.8 -0.3 0 0.775 -0.3 0 0.75 -0.3 0 0.725 -0.3 0 0.7 -0.3 0 0.675 -0.3 0 0.65 -0.3 0 0.625 -0.3 0 0.6 -0.3 0 0.575 -0.3 0 0.55 -0.3 0 0.525 -0.3 0 0.5 -0.3 0 0.475 -0.3 0 0.45 -0.3 0 0.425 -0.3 0 0.4 -0.3 0 0.375 -0.3 0 0.35 -0.3 0 0.325 -0.3 0 0.3 -0.3 0 0.275 -0.3 0 0.25 -0.3 0 0.225 -0.3 0 0.2 -0.3 0 0.175 -0.3 0 0.15 -0.3 0 0.125 -0.3 0 0.1 -0.3 0 0.075 -0.3 0 0.05 -0.3 0 0.025 -0.3 0 0 -0.3 0 -0.025 -0.3 0 -0.05 -0.3 0 -0.075 -0.3 0 -0.1 -0.3 0 -0.125 -0.3 0 -0.15 -0.3 0 -0.175 -0.3 0 -0.2 -0.3 0 -0.225 -0.3 0 -0.25 -0.3 0 -0.275 -0.3 0 -0.3 -0.3 0 -0.325 -0.3 0 -0.35 -0.3 0 -0.375 -0.3 0 -0.4 -0.3 0 -0.425 -0.3 0 -0.45 -0.3 0 -0.475 -0.3 0 -0.5 -0.3 0 -0.525 -0.3 0 -0.55 -0.3 0 -0.575 -0.3 0 -0.6 -0.3 0 -0.625 -0.3 0 -0.65 -0.3 0 -0.675 -0.3 0 -0.7 -0.3 0 -0.725 -0.3 0 -0.75 -0.3 0 -0.775 -0.3 0 -0.8 -0.3 0 -0.825 -0.3 0 -0.85 -0.3 0 -0.875 -0.3 0 -0.9 -0.3 0 -0.925 -0.3 0 -0.95 -0.3 0 -0.975 -0.3 0 -1 -0.325 0 -1 -0.35 0 -1 -0.375 0 0.95 -0.375 0 0.9 -0.375 0 0.85 -0.375 0 0.8 -0.375 0 0.75 -0.375 0 0.7 -0.375 0 0.65 -0.375 0 0.6 -0.375 0 0.55 -0.375 0 0.5 -0.375 0 0.45 -0.375 0 0.4 -0.375 0 0.35 -0.375 0 0.3 -0.375 0 0.25 -0.375 0 0.2 -0.375 0 0.15 -0.375 0 0.1 -0.375 0 0.05 -0.375 0 0 -0.375 0 -0.05 -0.375 0 -0.1 -0.375 0 -0.15 -0.375 0 -0.2 -0.375 0 -0.25 -0.375 0 -0.3 -0.375 0 -0.35 -0.375 0 -0.4 -0.375 0 -0.45 -0.375 0 -0.5 -0.375 0 -0.55 -0.375 0 -0.6 -0.375 0 -0.65 -0.375 0 -0.7 -0.375 0 -0.75 -0.375 0 -0.8 -0.375 0 -0.85 -0.375 0 -0.9 -0.375 0 -0.95 -0.375 0 0.975 -0.35 0 0.95 -0.35 0 0.925 -0.35 0 0.9 -0.35 0 0.875 -0.35 0 0.85 -0.35 0 0.825 -0.35 0 0.8 -0.35 0 0.775 -0.35 0 0.75 -0.35 0 0.725 -0.35 0 0.7 -0.35 0 0.675 -0.35 0 0.65 -0.35 0 0.625 -0.35 0 0.6 -0.35 0 0.575 -0.35 0 0.55 -0.35 0 0.525 -0.35 0 0.5 -0.35 0 0.475 -0.35 0 0.45 -0.35 0 0.425 -0.35 0 0.4 -0.35 0 0.375 -0.35 0 0.35 -0.35 0 0.325 -0.35 0 0.3 -0.35 0 0.275 -0.35 0 0.25 -0.35 0 0.225 -0.35 0 0.2 -0.35 0 0.175 -0.35 0 0.15 -0.35 0 0.125 -0.35 0 0.1 -0.35 0 0.075 -0.35 0 0.05 -0.35 0 0.025 -0.35 0 0 -0.35 0 -0.025 -0.35 0 -0.05 -0.35 0 -0.075 -0.35 0 -0.1 -0.35 0 -0.125 -0.35 0 -0.15 -0.35 0 -0.175 -0.35 0 -0.2 -0.35 0 -0.225 -0.35 0 -0.25 -0.35 0 -0.275 -0.35 0 -0.3 -0.35 0 -0.325 -0.35 0 -0.35 -0.35 0 -0.375 -0.35 0 -0.4 -0.35 0 -0.425 -0.35 0 -0.45 -0.35 0 -0.475 -0.35 0 -0.5 -0.35 0 -0.525 -0.35 0 -0.55 -0.35 0 -0.575 -0.35 0 -0.6 -0.35 0 -0.625 -0.35 0 -0.65 -0.35 0 -0.675 -0.35 0 -0.7 -0.35 0 -0.725 -0.35 0 -0.75 -0.35 0 -0.775 -0.35 0 -0.8 -0.35 0 -0.825 -0.35 0 -0.85 -0.35 0 -0.875 -0.35 0 -0.9 -0.35 0 -0.925 -0.35 0 -0.95 -0.35 0 -0.975 -0.35 0 0.95 -0.325 0 0.9 -0.325 0 0.85 -0.325 0 0.8 -0.325 0 0.75 -0.325 0 0.7 -0.325 0 0.65 -0.325 0 0.6 -0.325 0 0.55 -0.325 0 0.5 -0.325 0 0.45 -0.325 0 0.4 -0.325 0 0.35 -0.325 0 0.3 -0.325 0 0.25 -0.325 0 0.2 -0.325 0 0.15 -0.325 0 0.1 -0.325 0 0.05 -0.325 0 0 -0.325 0 -0.05 -0.325 0 -0.1 -0.325 0 -0.15 -0.325 0 -0.2 -0.325 0 -0.25 -0.325 0 -0.3 -0.325 0 -0.35 -0.325 0 -0.4 -0.325 0 -0.45 -0.325 0 -0.5 -0.325 0 -0.55 -0.325 0 -0.6 -0.325 0 -0.65 -0.325 0 -0.7 -0.325 0 -0.75 -0.325 0 -0.8 -0.325 0 -0.85 -0.325 0 -0.9 -0.325 0 -0.95 -0.325 0 -1.01472 0.299639 0 -1.0294 0.298555 0 -1.04402 0.296753 0 -1.05853 0.294236 0 -1.07289 0.291009 0 -1.08709 0.287082 0 -1.10107 0.282463 0 -1.11481 0.277164 0 -1.12827 0.271197 0 -1.14142 0.264576 0 -1.15423 0.257319 0 -1.16667 0.249441 0 -1.17871 0.240962 0 -1.19032 0.231903 0 -1.20147 0.222285 0 -1.21213 0.212132 0 -1.22229 0.201468 0 -1.2319 0.190318 0 -1.24096 0.17871 0 -1.24944 0.166671 0 -1.25732 0.154231 0 -1.26458 0.141419 0 -1.2712 0.128267 0 -1.27716 0.114805 0 -1.28246 0.101067 0 -1.28708 0.087085 0 -1.29101 0.072894 0 -1.29424 0.058527 0 -1.29675 0.044019 0 -1.29855 0.029405 0 -1.29964 0.01472 0 -1.3 0 0 -1.29964 -0.01472 0 -1.29855 -0.029405 0 -1.29675 -0.044019 0 -1.29424 -0.058527 0 -1.29101 -0.072894 0 -1.28708 -0.087085 0 -1.28246 -0.101067 0 -1.27716 -0.114805 0 -1.2712 -0.128267 0 -1.26458 -0.141419 0 -1.25732 -0.154231 0 -1.24944 -0.166671 0 -1.24096 -0.17871 0 -1.2319 -0.190318 0 -1.22229 -0.201468 0 -1.21213 -0.212132 0 -1.20147 -0.222285 0 -1.19032 -0.231903 0 -1.17871 -0.240962 0 -1.16667 -0.249441 0 -1.15423 -0.257319 0 -1.14142 -0.264576 0 -1.12827 -0.271197 0 -1.11481 -0.277164 0 -1.10107 -0.282463 0 -1.08709 -0.287082 0 -1.07289 -0.291009 0 -1.05853 -0.294236 0 -1.04402 -0.296753 0 -1.0294 -0.298555 0 -1.01472 -0.299639 0 -1.03676 -0.373194 0 -1.07316 -0.367794 0 -1.10886 -0.358853 0 -1.14351 -0.346455 0 -1.17677 -0.33072 0 -1.20834 -0.311801 0 -1.2379 -0.289879 0 -1.26517 -0.265165 0 -1.28988 -0.237897 0 -1.3118 -0.208339 0 -1.33072 -0.176774 0 -1.34645 -0.143506 0 -1.35885 -0.108857 0 -1.36779 -0.073159 0 -1.37319 -0.036756 0 -1.375 0 0 -1.37319 0.036756 0 -1.36779 0.073159 0 -1.35885 0.108857 0 -1.34645 0.143506 0 -1.33072 0.176774 0 -1.3118 0.208339 0 -1.28988 0.237897 0 -1.26517 0.265165 0 -1.2379 0.289879 0 -1.20834 0.311801 0 -1.17677 0.33072 0 -1.14351 0.346455 0 -1.10886 0.358853 0 -1.07316 0.367794 0 -1.03676 0.373194 0 -1.01717 -0.349578 0 -1.03431 -0.348315 0 -1.05136 -0.346212 0 -1.06828 -0.343275 0 -1.08504 -0.339511 0 -1.1016 -0.334929 0 -1.11791 -0.32954 0 -1.13394 -0.323358 0 -1.14964 -0.316396 0 -1.16499 -0.308672 0 -1.17994 -0.300205 0 -1.19445 -0.291014 0 -1.2085 -0.281123 0 -1.22204 -0.270554 0 -1.23505 -0.259333 0 -1.24749 -0.247487 0 -1.25933 -0.235046 0 -1.27055 -0.222038 0 -1.28112 -0.208495 0 -1.29101 -0.19445 0 -1.30021 -0.179936 0 -1.30867 -0.164989