<?xml version="1.0"?>
<VTKFile byte_order="LittleEndian" type="UnstructuredGrid" version="0.1">
<UnstructuredGrid>
<Piece NumberOfCells="576" NumberOfPoints="2016">
<PointData>
<DataArray Name="Warping_X" format="ascii" type="Float64">
-6.24176e-08 6.75973e-08 -5.46604e-08 -5.12379e-08 -4.48904e-08 -4.20105e-08 -3.63777e-08 -3.35968e-08 -2.84048e-08 -2.56287e-08 -2.08201e-08 -1.81733e-08 -1.37818e-08 -1.14379e-08 -7.50128e-09 -5.56692e-09 -2.10597e-09 -6.02245e-10 2.35253e-09 3.44549e-09 5.83363e-09 6.54059e-09 8.28118e-09 8.62348e-09 9.65314e-09 9.64974e-09 9.96361e-09 9.62725e-09 9.30972e-09 8.6373e-09 7.86109e-09 6.85763e-09 5.84048e-09 4.59456e-09 3.53293e-09 2.2498e-09 1.27483e-09 2.23227e-10 -5.88041e-10 -1.1568e-09 -1.74238e-09 -1.65121e-09 -1.94953e-09 -1.12057e-09 -1.08613e-09 4.64847e-10 8.54409e-10 3.04948e-09 3.80085e-09 6.5412e-09 7.65319e-09 1.08587e-08 1.23175e-08 1.59402e-08 1.76893e-08 2.17004e-08 2.36161e-08 2.79979e-08 2.99563e-08 3.47633e-08 3.68183e-08 4.23222e-08 4.47101e-08 5.13641e-08 5.66112e-08 7.67567e-08 6.75168e-08 7.02026e-08 7.26174e-08 -8.06666e-08 -7.66119e-08 -7.25572e-08 -6.68575e-08 -6.10004e-08 -5.54083e-08 -4.94658e-08 -4.46521e-08 -3.93033e-08 -3.54047e-08 -3.08394e-08 -2.77408e-08 -2.3901e-08 -2.14203e-08 -1.81465e-08 -1.61166e-08 -1.32437e-08 -1.15403e-08 -8.94843e-09 -7.50603e-09 -5.14269e-09 -3.95091e-09 -1.82447e-09 -9.07928e-10 9.28439e-10 1.53298e-09 2.99964e-09 3.2677e-09 4.28602e-09 4.2498e-09 4.78896e-09 4.60112e-09 4.74467e-09 4.67714e-09 4.64484e-09 4.9549e-09 4.9993e-09 5.80488e-09 6.0877e-09 7.37604e-09 7.95552e-09 9.65145e-09 1.0529e-08 1.25497e-08 1.37071e-08 1.59951e-08 1.74197e-08 1.99614e-08 2.16696e-08 2.45067e-08 2.65568e-08 2.97801e-08 3.22584e-08 3.59707e-08 3.89601e-08 4.32189e-08 4.67765e-08 5.15022e-08 5.55969e-08 6.04525e-08 6.48271e-08 6.90274e-08 7.29896e-08 7.48726e-08 -6.52489e-08 -6.95743e-08 -7.51908e-08 -6.49657e-08 -5.50699e-08 -5.9479e-08 -6.64073e-08 -5.46018e-08 -4.59268e-08 -4.92213e-08 -5.63053e-08 -4.43851e-08 -3.74867e-08 -3.94361e-08 -4.60577e-08 -3.4919e-08 -2.95718e-08 -3.05776e-08 -3.65831e-08 -2.6581e-08 -2.22046e-08 -2.29172e-08 -2.83261e-08 -1.94697e-08 -1.55026e-08 -1.64131e-08 -2.13424e-08 -1.34419e-08 -9.56152e-09 -1.08726e-08 -1.54457e-08 -8.29981e-09 -4.42757e-09 -6.13041e-09 -1.04005e-08 -3.91764e-09 -1.30781e-10 -2.11749e-09 -6.05083e-09 -2.63627e-10 3.27934e-09 1.15538e-09 -2.34957e-09 2.6301e-09 5.73839e-09 3.63975e-09 6.72253e-10 4.71129e-09 7.20472e-09 5.29391e-09 2.95305e-09 5.9506e-09 7.69436e-09 6.12015e-09 4.44399e-09 6.37264e-09 7.29885e-09 6.18739e-09 5.14789e-09 6.07468e-09 6.19219e-09 5.63883e-09 5.16151e-09 5.23962e-09 4.64565e-09 4.70041e-09 4.72392e-09 4.14756e-09 3.0116e-09 3.67449e-09 4.21215e-09 3.14337e-09 1.65477e-09 2.88752e-09 4.02577e-09 2.55391e-09 8.90105e-10 2.62458e-09 4.45795e-09 2.62585e-09 9.54271e-10 3.0894e-09 5.65953e-09 3.50497e-09 1.98516e-09 4.38774e-09 7.66668e-09 5.23966e-09 4.01386e-09 6.53464e-09 1.0444e-08 7.80518e-09 6.98849e-09 9.48516e-09 1.39305e-08 1.11413e-08 1.0817e-08 1.3177e-08 1.80869e-08 1.51996e-08 1.54089e-08 1.75783e-08 2.29416e-08 1.9992e-08 2.06837e-08 2.27383e-08 2.8616e-08 2.56303e-08 2.65511e-08 2.8815e-08 3.52877e-08 3.23062e-08 3.2917e-08 3.59957e-08 4.30528e-08 4.01347e-08 3.97808e-08 4.42646e-08 5.17309e-08 4.89132e-08 4.74225e-08 5.31819e-08 6.06617e-08 5.79036e-08 5.67819e-08 6.17038e-08 6.84776e-08 6.67724e-08 -6.44327e-08 -6.29435e-08 -6.35745e-08 -6.4119e-08 -6.47048e-08 -6.52301e-08 -6.57702e-08 -6.62301e-08 -6.66925e-08 -6.70866e-08 -6.74776e-08 -6.78118e-08 -6.81417e-08 -6.84244e-08 -6.87034e-08 -6.89421e-08 -6.91788e-08 -6.93801e-08 -6.95816e-08 -6.97513e-08 -6.99233e-08 -7.00665e-08 -7.02139e-08 -7.03348e-08 -7.04617e-08 -7.0564e-08 -7.06738e-08 -7.07605e-08 -7.0856e-08 -7.09296e-08 -7.10132e-08 -7.10756e-08 -7.11491e-08 -7.12021e-08 -7.12668e-08 -7.13117e-08 -7.13688e-08 -7.14063e-08 -7.14565e-08 -7.14874e-08 -7.15311e-08 -7.15557e-08 -7.15932e-08 -7.16115e-08 -7.16426e-08 -7.16544e-08 -7.16787e-08 -7.16836e-08 -7.17005e-08 -7.16976e-08 -7.17062e-08 -7.16944e-08 -7.16934e-08 -7.16713e-08 -7.16591e-08 -7.16249e-08 -7.15994e-08 -7.15508e-08 -7.15097e-08 -7.1444e-08 -7.13844e-08 -7.12985e-08 -7.12173e-08 -7.11076e-08 -7.10011e-08 -7.08638e-08 -7.07284e-08 -7.05593e-08 -7.03916e-08 -7.01869e-08 -6.99844e-08 -6.97409e-08 -6.95034e-08 -6.92167e-08 -6.89456e-08 -6.85981e-08 -6.82879e-08 -6.77414e-08 -6.72689e-08 -6.58197e-08 -8.23947e-08 -8.23842e-08 -8.23277e-08 -8.15083e-08 -8.07898e-08 -8.00551e-08 -7.94013e-08 -7.88122e-08 -7.82791e-08 -7.78148e-08 -7.73884e-08 -7.70187e-08 -7.66743e-08 -7.63769e-08 -7.60958e-08 -7.58543e-08 -7.56224e-08 -7.54247e-08 -7.52315e-08 -7.50684e-08 -7.4906e-08 -7.47707e-08 -7.46329e-08 -7.45199e-08 -7.44021e-08 -7.43073e-08 -7.42058e-08 -7.4126e-08 -7.4038e-08 -7.39705e-08 -7.38938e-08 -7.38369e-08 -7.37697e-08 -7.37218e-08 -7.3663e-08 -7.3623e-08 -7.35717e-08 -7.35389e-08 -7.34945e-08 -7.34685e-08 -7.34309e-08 -7.34115e-08 -7.33806e-08 -7.33682e-08 -7.33444e-08 -7.33392e-08 -7.33231e-08 -7.33261e-08 -7.33187e-08 -7.3331e-08 -7.33337e-08 -7.33567e-08 -7.33712e-08 -7.34072e-08 -7.34358e-08 -7.34872e-08 -7.35329e-08 -7.36031e-08 -7.36696e-08 -7.37628e-08 -7.3855e-08 -7.39766e-08 -7.41004e-08 -7.42574e-08 -7.44206e-08 -7.4622e-08 -7.48346e-08 -7.50923e-08 -7.53673e-08 -7.56972e-08 -7.60516e-08 -7.64746e-08 -7.69295e-08 -7.74678e-08 -7.80425e-08 -7.86969e-08 -7.9381e-08 -8.00981e-08 -8.07727e-08 -8.0744e-08 -6.9833e-08 -6.83623e-08 -7.90769e-08 -6.98888e-08 -6.95282e-08 -7.13356e-08 -7.74841e-08 -7.1857e-08 -6.99898e-08 -7.22868e-08 -7.67638e-08 -7.2517e-08 -7.05e-08 -7.26864e-08 -7.62294e-08 -7.28134e-08 -7.09309e-08 -7.29012e-08 -7.57704e-08 -7.29734e-08 -7.12773e-08 -7.30203e-08 -7.537e-08 -7.30585e-08 -7.15502e-08 -7.308e-08 -7.5023e-08 -7.30958e-08 -7.17618e-08 -7.31005e-08 -7.47233e-08 -7.31015e-08 -7.19227e-08 -7.30949e-08 -7.44645e-08 -7.30859e-08 -7.20416e-08 -7.30717e-08 -7.42404e-08 -7.30559e-08 -7.2126e-08 -7.30365e-08 -7.40455e-08 -7.30161e-08 -7.2182e-08 -7.29931e-08 -7.38751e-08 -7.29695e-08 -7.22145e-08 -7.2944e-08 -7.37252e-08 -7.29182e-08 -7.22276e-08 -7.28909e-08 -7.35924e-08 -7.28635e-08 -7.22247e-08 -7.2835e-08 -7.34739e-08 -7.28066e-08 -7.22082e-08 -7.27772e-08 -7.33677e-08 -7.27479e-08 -7.21803e-08 -7.27178e-08 -7.32721e-08 -7.26879e-08 -7.21426e-08 -7.26573e-08 -7.31856e-08 -7.2627e-08 -7.2096e-08 -7.2596e-08 -7.31074e-08 -7.25653e-08 -7.20414e-08 -7.2534e-08 -7.30369e-08 -7.25029e-08 -7.19792e-08 -7.24713e-08 -7.29736e-08 -7.244e-08 -7.19093e-08 -7.24081e-08 -7.29177e-08 -7.23764e-08 -7.18315e-08 -7.23442e-08 -7.28693e-08 -7.23122e-08 -7.17451e-08 -7.22796e-08 -7.28291e-08 -7.22471e-08 -7.16491e-08 -7.2214e-08 -7.27978e-08 -7.2181e-08 -7.15419e-08 -7.21472e-08 -7.27769e-08 -7.21135e-08 -7.14217e-08 -7.20788e-08 -7.27678e-08 -7.20442e-08 -7.12859e-08 -7.20083e-08 -7.27728e-08 -7.19723e-08 -7.11314e-08 -7.19348e-08 -7.27944e-08 -7.18971e-08 -7.09543e-08 -7.18573e-08 -7.28358e-08 -7.18171e-08 -7.07498e-08 -7.17741e-08 -7.2901e-08 -7.17304e-08 -7.0512e-08 -7.16831e-08 -7.29946e-08 -7.16346e-08 -7.02339e-08 -7.1581e-08 -7.31216e-08 -7.15258e-08 -6.99073e-08 -7.14636e-08 -7.32876e-08 -7.13993e-08 -6.95226e-08 -7.1325e-08 -7.34972e-08 -7.12489e-08 -6.90692e-08 -7.11587e-08 -7.37523e-08 -7.10681e-08 -6.85359e-08 -7.09577e-08 -7.40472e-08 -7.08518e-08 -6.791e-08 -7.07189e-08 -7.43617e-08 -7.0596e-08 -6.7176e-08 -7.0439e-08 -7.46573e-08 -7.03102e-08 -6.62931e-08 -7.01522e-08 -7.48703e-08 -6.98843e-08 7.63622e-08 1.04288e-07 8.08153e-08 8.53261e-08 8.25854e-08 8.06428e-08 8.03215e-08 7.96461e-08 7.91457e-08 7.83767e-08 7.80356e-08 7.74305e-08 7.71929e-08 7.67136e-08 7.65687e-08 7.61958e-08 7.61259e-08 7.58363e-08 7.5825e-08 7.55987e-08 7.56326e-08 7.54538e-08 7.55221e-08 7.53787e-08 7.54732e-08 7.53561e-08 7.54705e-08 7.5373e-08 7.55025e-08 7.54194e-08 7.55606e-08 7.54883e-08 7.56384e-08 7.55742e-08 7.57315e-08 7.56736e-08 7.58367e-08 7.5784e-08 7.5952e-08 7.59038e-08 7.60765e-08 7.60326e-08 7.62099e-08 7.61705e-08 7.6353e-08 7.63188e-08 7.65074e-08 7.64795e-08 7.66758e-08 7.66559e-08 7.68623e-08 7.68527e-08 7.70725e-08 7.70764e-08 7.7314e-08 7.73357e-08 7.75973e-08 7.76426e-08 7.79365e-08 7.80128e-08 7.83501e-08 7.84676e-08 7.88631e-08 7.9035e-08 7.95085e-08 7.97523e-08 8.03298e-08 8.06687e-08 8.13847e-08 8.18493e-08 8.27493e-08 8.33806e-08 8.45241e-08 8.53778e-08 8.68465e-08 8.80099e-08 8.99001e-08 9.14888e-08 9.39852e-08 9.63265e-08 9.99078e-08 8.80951e-08 7.7284e-08 8.42882e-08 8.01441e-08 7.63104e-08 7.60686e-08 7.54719e-08 7.49906e-08 7.46648e-08 7.44033e-08 7.41893e-08 7.40222e-08 7.38913e-08 7.37959e-08 7.37182e-08 7.36694e-08 7.36279e-08 7.36113e-08 7.35948e-08 7.36006e-08 7.36019e-08 7.36238e-08 7.36381e-08 7.36716e-08 7.36955e-08 7.37378e-08 7.37688e-08 7.38177e-08 7.38541e-08 7.39082e-08 7.39488e-08 7.40068e-08 7.40506e-08 7.41118e-08 7.41583e-08 7.4222e-08 7.42708e-08 7.43366e-08 7.43872e-08 7.4455e-08 7.45073e-08 7.45768e-08 7.46308e-08 7.47019e-08 7.47576e-08 7.48305e-08 7.48879e-08 7.49626e-08 7.50221e-08 7.50989e-08 7.51608e-08 7.52401e-08 7.53049e-08 7.53873e-08 7.54557e-08 7.5542e-08 7.56151e-08 7.57064e-08 7.57855e-08 7.58833e-08 7.59703e-08 7.60766e-08 7.61739e-08 7.62916e-08 7.64027e-08 7.65356e-08 7.6665e-08 7.68182e-08 7.6972e-08 7.71525e-08 7.73388e-08 7.75559e-08 7.77847e-08 7.80498e-08 7.83316e-08 7.86577e-08 7.8996e-08 7.93902e-08 7.97574e-08 8.01968e-08 8.04523e-08 8.08026e-08 8.04089e-08 9.97895e-08 9.52472e-08 8.81048e-08 9.30611e-08 9.4096e-08 9.1252e-08 8.58786e-08 8.92576e-08 8.9875e-08 8.77022e-08 8.40081e-08 8.62123e-08 8.67326e-08 8.5069e-08 8.23179e-08 8.3925e-08 8.43627e-08 8.3053e-08 8.09384e-08 8.21707e-08 8.25528e-08 8.15045e-08 7.98447e-08 8.08199e-08 8.11617e-08 8.03078e-08 7.89841e-08 7.97728e-08 8.00854e-08 7.93772e-08 7.83043e-08 7.8955e-08 7.92466e-08 7.86473e-08 7.77621e-08 7.83101e-08 7.85867e-08 7.80686e-08 7.73238e-08 7.77953e-08 7.80616e-08 7.76038e-08 7.69637e-08 7.73785e-08 7.76378e-08 7.72245e-08 7.66622e-08 7.70352e-08 7.72901e-08 7.69096e-08 7.64048e-08 7.67473e-08 7.69995e-08 7.6643e-08 7.61807e-08 7.6501e-08 7.67519e-08 7.64128e-08 7.59816e-08 7.6286e-08 7.65366e-08 7.621e-08 7.58015e-08 7.60948e-08 7.63457e-08 7.60281e-08 7.5636e-08 7.59217e-08 7.61733e-08 7.58622e-08 7.54817e-08 7.57625e-08 7.60155e-08 7.57087e-08 7.53364e-08 7.56145e-08 7.58691e-08 7.55653e-08 7.51983e-08 7.54755e-08 7.57324e-08 7.54303e-08 7.50663e-08 7.53444e-08 7.56042e-08 7.53029e-08 7.494e-08 7.52207e-08 7.54844e-08 7.51828e-08 7.48192e-08 7.51044e-08 7.53735e-08 7.50705e-08 7.47041e-08 7.49963e-08 7.52727e-08 7.49671e-08 7.45954e-08 7.4898e-08 7.51842e-08 7.48745e-08 7.44946e-08 7.48115e-08 7.51116e-08 7.47954e-08 7.44033e-08 7.47403e-08 7.50593e-08 7.47338e-08 7.43243e-08 7.4689e-08 7.50339e-08 7.46951e-08 7.42612e-08 7.46638e-08 7.50441e-08 7.46867e-08 7.4219e-08 7.46733e-08 7.51018e-08 7.47186e-08 7.42046e-08 7.47287e-08 7.52226e-08 7.4804e-08 7.42271e-08 7.48457e-08 7.54273e-08 7.4961e-08 7.4299e-08 7.50446e-08 7.57431e-08 7.52138e-08 7.44377e-08 7.53539e-08 7.62051e-08 7.5596e-08 7.46673e-08 7.58123e-08 7.68568e-08 7.61544e-08 7.50223e-08 7.64763e-08 7.77532e-08 7.69605e-08 7.5553e-08 7.74398e-08 7.89257e-08 7.81332e-08 7.63201e-08 7.87644e-08 8.05917e-08 7.97246e-08 7.74627e-08 8.12095e-08 8.1688e-08 8.29073e-08 7.85066e-08 7.99795e-08 -8.73454e-08 -9.56151e-08 -9.30116e-08 -9.6201e-08 -9.10238e-08 -9.25239e-08 -8.65026e-08 -8.71773e-08 -8.06397e-08 -8.06577e-08 -7.36755e-08 -7.31174e-08 -6.57773e-08 -6.47966e-08 -5.72597e-08 -5.60255e-08 -4.84992e-08 -4.71428e-08 -3.98583e-08 -3.84866e-08 -3.1676e-08 -3.03982e-08 -2.42747e-08 -2.32098e-08 -1.7949e-08 -1.72117e-08 -1.29405e-08 -1.25835e-08 -9.38253e-09 -9.28013e-09 -7.1603e-09 -6.94804e-09 -5.79365e-09 -4.9983e-09 -4.51264e-09 -2.76367e-09 -2.52844e-09 3.46482e-10 6.96237e-10 4.71298e-09 5.35017e-09 1.04307e-08 1.13564e-08 1.73674e-08 1.85058e-08 2.52673e-08 2.65238e-08 3.3825e-08 3.51086e-08 4.27273e-08 4.39541e-08 5.16792e-08 5.27638e-08 6.04238e-08 6.1282e-08 6.87768e-08 6.93851e-08 7.67445e-08 7.72452e-08 8.46505e-08 8.53269e-08 9.30314e-08 9.40905e-08 1.02688e-07 -8.16559e-08 -8.16971e-08 -8.0623e-08 -7.99705e-08 -7.83693e-08 -7.66259e-08 -7.42306e-08 -7.12958e-08 -6.80681e-08 -6.40948e-08 -6.02539e-08 -5.56015e-08 -5.14408e-08 -4.649e-08 -4.22677e-08 -3.73387e-08 -3.32584e-08 -2.8603e-08 -2.48296e-08 -2.06562e-08 -1.73377e-08 -1.38431e-08 -1.11303e-08 -8.52155e-09 -6.57142e-09 -5.04648e-09 -3.99883e-09 -3.64079e-09 -3.54184e-09 -4.16878e-09 -4.82969e-09 -5.93456e-09 -6.84795e-09 -7.74447e-09 -8.26536e-09 -8.40672e-09 -8.04953e-09 -7.22018e-09 -5.78805e-09 -4.02394e-09 -1.56127e-09 9.96489e-10 4.33045e-09 7.52132e-09 1.15522e-08 1.52269e-08 1.97948e-08 2.38183e-08 2.87664e-08 3.30047e-08 3.81498e-08 4.24504e-08 4.7549e-08 5.17204e-08 5.64535e-08 6.02623e-08 6.4276e-08 6.75052e-08 7.05485e-08 7.31308e-08 7.5149e-08 7.7203e-08 7.84213e-08 -8.92055e-08 -9.15582e-08 -8.87693e-08 -8.95137e-08 -9.0673e-08 -8.92488e-08 -8.47248e-08 -8.69349e-08 -8.84756e-08 -8.57161e-08 -8.1086e-08 -8.24303e-08 -8.38115e-08 -8.02643e-08 -7.71711e-08 -7.63423e-08 -7.75895e-08 -7.36263e-08 -7.19493e-08 -6.93152e-08 -7.03445e-08 -6.62663e-08 -6.52784e-08 -6.16964e-08 -6.24126e-08 -5.84354e-08 -5.74612e-08 -5.36974e-08 -5.40656e-08 -5.03236e-08 -4.89764e-08 -4.5533e-08 -4.55851e-08 -4.2164e-08 -4.0317e-08 -3.74656e-08 -3.72767e-08 -3.42344e-08 -3.19183e-08 -2.97825e-08 -2.94544e-08 -2.68247e-08 -2.4155e-08 -2.27746e-08 -2.24239e-08 -2.02208e-08 -1.73643e-08 -1.67311e-08 -1.64716e-08 -1.47006e-08 -1.18699e-08 -1.19272e-08 -1.18385e-08 -1.05066e-08 -7.96904e-09 -8.57544e-09 -8.6567e-09 -7.77331e-09 -5.83759e-09 -6.70453e-09 -6.81416e-09 -6.389e-09 -5.34606e-09 -6.00168e-09 -5.83333e-09 -5.87223e-09 -5.9003e-09 -5.78894e-09 -4.93614e-09 -5.4357e-09 -6.51774e-09 -5.2265e-09 -3.32426e-09 -4.27146e-09 -6.20634e-09 -3.61073e-09 -4.63947e-10 -1.84433e-09 -4.34224e-09 -5.76059e-10 3.82498e-09 2.01997e-09 -7.51278e-10 3.90709e-09 9.46341e-09 7.23507e-09 4.4353e-09 9.66945e-09 1.62434e-08 1.3591e-08 1.09571e-08 1.64654e-08 2.39036e-08 2.08365e-08 1.85285e-08 2.40334e-08 3.2166e-08 2.8717e-08 2.68671e-08 3.21177e-08 4.07568e-08 3.69856e-08 3.56844e-08 4.04791e-08 4.94334e-08 4.54225e-08 4.46642e-08 4.89236e-08 5.802e-08 5.38757e-08 5.34515e-08 5.73418e-08 6.64355e-08 6.22919e-08 6.16842e-08 6.57152e-08 7.46926e-08 7.06761e-08 6.90873e-08 7.40501e-08 8.28787e-08 7.90044e-08 7.56219e-08 8.22573e-08 9.12291e-08 8.71181e-08 8.16448e-08 9.03172e-08 -9.80755e-08 -1.04223e-07 -8.83648e-08 -9.08673e-08 -9.42398e-08 -9.24936e-08 -8.83035e-08 -8.47384e-08 -8.30274e-08 -8.14249e-08 -8.03016e-08 -7.92657e-08 -7.85258e-08 -7.78367e-08 -7.73139e-08 -7.6824e-08 -7.64403e-08 -7.60788e-08 -7.57905e-08 -7.55179e-08 -7.52989e-08 -7.50912e-08 -7.49245e-08 -7.4766e-08 -7.464e-08 -7.45198e-08 -7.44259e-08 -7.43361e-08 -7.42679e-08 -7.42025e-08 -7.41552e-08 -7.41097e-08 -7.40796e-08 -7.40504e-08 -7.40345e-08 -7.40189e-08 -7.4015e-08 -7.4011e-08 -7.40175e-08 -7.40235e-08 -7.40392e-08 -7.40541e-08 -7.40783e-08 -7.41016e-08 -7.41338e-08 -7.41651e-08 -7.42054e-08 -7.42448e-08 -7.42935e-08 -7.43415e-08 -7.43994e-08 -7.44568e-08 -7.45251e-08 -7.45933e-08 -7.46735e-08 -7.47543e-08 -7.48488e-08 -7.49445e-08 -7.50562e-08 -7.51699e-08 -7.53026e-08 -7.54385e-08 -7.55971e-08 -7.57604e-08 -7.59513e-08 -7.61488e-08 -7.63804e-08 -7.6621e-08 -7.69043e-08 -7.72e-08 -7.75499e-08 -7.79166e-08 -7.83539e-08 -7.88143e-08 -7.93699e-08 -7.99587e-08 -8.06854e-08 -8.14652e-08 -8.24564e-08 -8.3527e-08 -8.49226e-08 -8.61816e-08 -8.71368e-08 -8.44588e-08 -8.1437e-08 -7.92152e-08 -7.76957e-08 -7.66079e-08 -7.58034e-08 -7.51958e-08 -7.47316e-08 -7.43758e-08 -7.41042e-08 -7.3899e-08 -7.3747e-08 -7.36381e-08 -7.35644e-08 -7.35198e-08 -7.34995e-08 -7.34999e-08 -7.35183e-08 -7.35528e-08 -7.36022e-08 -7.36658e-08 -7.37438e-08 -7.3837e-08 -7.39465e-08 -7.40747e-08 -7.42244e-08 -7.43996e-08 -7.46054e-08 -7.48485e-08 -7.51376e-08 -7.54837e-08 -7.59016e-08 -7.64103e-08 -7.70359e-08 -7.7814e-08 -7.8794e-08 -8.00454e-08 -8.16918e-08 -8.40717e-08 -8.86067e-08 -8.87913e-08 -8.57087e-08 -8.31253e-08 -8.15523e-08 -8.0188e-08 -7.92195e-08 -7.83355e-08 -7.76876e-08 -7.70813e-08 -7.66204e-08 -7.61822e-08 -7.5842e-08 -7.55155e-08 -7.52589e-08 -7.50116e-08 -7.48162e-08 -7.46277e-08 -7.44787e-08 -7.43353e-08 -7.42224e-08 -7.41143e-08 -7.40301e-08 -7.39503e-08 -7.38892e-08 -7.3832e-08 -7.37897e-08 -7.37511e-08 -7.37243e-08 -7.37009e-08 -7.3687e-08 -7.36764e-08 -7.36734e-08 -7.36737e-08 -7.36802e-08 -7.36898e-08 -7.37048e-08 -7.37229e-08 -7.37456e-08 -7.37715e-08 -7.38018e-08 -7.38351e-08 -7.38729e-08 -7.39138e-08 -7.39595e-08 -7.40083e-08 -7.40626e-08 -7.41201e-08 -7.41841e-08 -7.42514e-08 -7.43267e-08 -7.44054e-08 -7.44941e-08 -7.45863e-08 -7.46911e-08 -7.47996e-08 -7.4924e-08 -7.50524e-08 -7.5201e-08 -7.5354e-08 -7.55327e-08 -7.57163e-08 -7.5933e-08 -7.61551e-08 -7.64199e-08 -7.66912e-08 -7.7018e-08 -7.7353e-08 -7.77612e-08 -7.81802e-08 -7.86967e-08 -7.9228e-08 -7.98952e-08 -8.058e-08 -8.14629e-08 -8.23618e-08 -8.38357e-08 -8.54784e-08 -8.77347e-08 -9.04496e-08 -8.44417e-08 -8.09884e-08 -7.89037e-08 -7.75184e-08 -7.6541e-08 -7.5823e-08 -7.52833e-08 -7.48732e-08 -7.45611e-08 -7.43251e-08 -7.41494e-08 -7.40221e-08 -7.39341e-08 -7.38785e-08 -7.38499e-08 -7.38441e-08 -7.38581e-08 -7.38897e-08 -7.39377e-08 -7.40012e-08 -7.40806e-08 -7.41764e-08 -7.42903e-08 -7.44247e-08 -7.45829e-08 -7.47693e-08 -7.49899e-08 -7.52521e-08 -7.55658e-08 -7.59438e-08 -7.64027e-08 -7.69648e-08 -7.76605e-08 -7.85324e-08 -7.96442e-08 -8.10998e-08 -8.30898e-08 -8.59178e-08 6.29563e-08 6.78885e-08 6.82376e-08 6.86698e-08 6.91035e-08 6.95203e-08 6.99209e-08 7.02623e-08 7.05872e-08 7.08596e-08 7.11181e-08 7.13347e-08 7.15407e-08 7.17151e-08 7.1882e-08 7.2025e-08 7.21629e-08 7.22828e-08 7.23994e-08 7.25022e-08 7.26033e-08 7.26937e-08 7.27834e-08 7.28647e-08 7.29462e-08 7.3021e-08 7.30965e-08 7.31667e-08 7.3238e-08 7.33048e-08 7.33732e-08 7.34377e-08 7.3504e-08 7.3567e-08 7.36318e-08 7.36937e-08 7.37575e-08 7.38185e-08 7.38816e-08 7.39418e-08 7.40042e-08 7.40637e-08 7.41253e-08 7.41839e-08 7.42445e-08 7.43018e-08 7.4361e-08 7.44165e-08 7.44736e-08 7.45264e-08 7.45805e-08 7.46295e-08 7.46795e-08 7.47231e-08 7.47671e-08 7.48033e-08 7.4839e-08 7.48647e-08 7.48889e-08 7.49003e-08 7.49087e-08 7.49003e-08 7.4887e-08 7.48514e-08 7.48083e-08 7.47353e-08 7.46511e-08 7.45262e-08 7.4385e-08 7.41868e-08 7.39654e-08 7.36604e-08 7.33226e-08 7.28528e-08 7.23371e-08 7.15876e-08 7.07751e-08 6.94828e-08 6.81078e-08 6.55788e-08 6.99477e-08 7.02293e-08 8.01515e-08 7.29406e-08 7.29648e-08 7.29767e-08 7.29894e-08 7.30199e-08 7.30683e-08 7.31323e-08 7.32088e-08 7.3295e-08 7.33887e-08 7.34883e-08 7.35926e-08 7.37007e-08 7.3812e-08 7.3926e-08 7.40424e-08 7.4161e-08 7.42816e-08 7.44041e-08 7.45286e-08 7.46549e-08 7.47832e-08 7.49137e-08 7.50465e-08 7.5182e-08 7.53205e-08 7.54628e-08 7.56096e-08 7.57622e-08 7.59222e-08 7.60921e-08 7.62754e-08 7.64769e-08 7.67039e-08 7.69669e-08 7.72824e-08 7.76765e-08 7.8197e-08 7.89426e-08 7.05434e-08 7.08142e-08 7.10394e-08 7.12047e-08 7.14162e-08 7.15977e-08 7.17685e-08 7.19184e-08 7.20596e-08 7.21861e-08 7.23046e-08 7.24118e-08 7.25139e-08 7.2607e-08 7.26973e-08 7.278e-08 7.28619e-08 7.2937e-08 7.30129e-08 7.30827e-08 7.31543e-08 7.32203e-08 7.32889e-08 7.33522e-08 7.34189e-08 7.34804e-08 7.35458e-08 7.36062e-08 7.36707e-08 7.37304e-08 7.37945e-08 7.38539e-08 7.39178e-08 7.3977e-08 7.40409e-08 7.41002e-08 7.41642e-08 7.42235e-08 7.42877e-08 7.43472e-08 7.44115e-08 7.44711e-08 7.45355e-08 7.45951e-08 7.46594e-08 7.4719e-08 7.4783e-08 7.48422e-08 7.49057e-08 7.49643e-08 7.50268e-08 7.50842e-08 7.51453e-08 7.5201e-08 7.52598e-08 7.5313e-08 7.53685e-08 7.54182e-08 7.54692e-08 7.55138e-08 7.55584e-08 7.55961e-08 7.56321e-08 7.56602e-08 7.56843e-08 7.56994e-08 7.57069e-08 7.57041e-08 7.56879e-08 7.56594e-08 7.5606e-08 7.55381e-08 7.54179e-08 7.52805e-08 7.50177e-08 7.47342e-08 7.41151e-08 7.34712e-08 7.18676e-08 6.87823e-08 6.97137e-08 7.04479e-08 7.10237e-08 7.1481e-08 7.18488e-08 7.215e-08 7.24018e-08 7.26172e-08 7.28058e-08 7.2975e-08 7.313e-08 7.3275e-08 7.34127e-08 7.35454e-08 7.36747e-08 7.38016e-08 7.39268e-08 7.40508e-08 7.41738e-08 7.42957e-08 7.44161e-08 7.45344e-08 7.46496e-08 7.47603e-08 7.48646e-08 7.49598e-08 7.50422e-08 7.51069e-08 7.51472e-08 7.5154e-08 7.51152e-08 7.50143e-08 7.48292e-08 7.45302e-08 7.40787e-08 7.34269e-08 7.25233e-08 7.13381e-08 -5.57746e-08 -4.88247e-08 -4.37332e-08 -3.87533e-08 -3.36174e-08 -2.81639e-08 -2.31634e-08 -1.7727e-08 -1.32038e-08 -8.21452e-09 -4.40578e-09 -1.50008e-10 2.85604e-09 6.26051e-09 8.4797e-09 1.10404e-08 1.2532e-08 1.4318e-08 1.5132e-08 1.62109e-08 1.63506e-08 1.67431e-08 1.61474e-08 1.58013e-08 1.43495e-08 1.31461e-08 1.07195e-08 8.51998e-09 5.14443e-09 1.92397e-09 -2.05876e-09 -6.00204e-09 -9.93487e-09 -1.39497e-08 -1.71879e-08 -2.06154e-08 -2.28644e-08 -2.53597e-08 -2.66346e-08 -2.81612e-08 -2.85806e-08 -2.92401e-08 -2.88995e-08 -2.8793e-08 -2.77205e-08 -2.68871e-08 -2.50348e-08 -2.3444e-08 -2.07082e-08 -1.82739e-08 -1.45368e-08 -1.11534e-08 -6.34724e-09 -1.94467e-09 3.87609e-09 9.26511e-09 1.58686e-08 2.20509e-08 2.90256e-08 3.56435e-08 4.23888e-08 4.89428e-08 5.58738e-08 7.30706e-08 6.38746e-08 5.44922e-08 4.51414e-08 3.59343e-08 2.70038e-08 1.85281e-08 1.07001e-08 3.70535e-09 -2.2779e-09 -7.04868e-09 -1.03569e-08 -1.19211e-08 -1.15412e-08 -9.3253e-09 -5.94004e-09 -2.59528e-09 -5.01686e-10 -3.17952e-10 -2.12485e-09 -5.6841e-09 -1.06759e-08 -1.68109e-08 -2.38371e-08 -3.1507e-08 -3.95542e-08 -4.77187e-08 -5.58021e-08 -6.37097e-08 -7.13281e-08 -7.79887e-08 6.63532e-08 6.16286e-08 5.74523e-08 5.25021e-08 4.7842e-08 4.24154e-08 3.7829e-08 3.24395e-08 2.81131e-08 2.29985e-08 1.90025e-08 1.43028e-08 1.0679e-08 6.48439e-09 3.27634e-09 -3.58196e-10 -3.09915e-09 -6.14142e-09 -8.35528e-09 -1.07829e-08 -1.23855e-08 -1.41571e-08 -1.50293e-08 -1.60651e-08 -1.60637e-08 -1.62421e-08 -1.52633e-08 -1.44659e-08 -1.25729e-08 -1.08076e-08 -8.35859e-09 -5.93026e-09 -3.56082e-09 -1.09212e-09 5.83503e-10 2.44876e-09 3.13548e-09 4.04087e-09 3.74492e-09 3.64389e-09 2.49959e-09 1.52019e-09 -3.35767e-10 -2.02537e-09 -4.49696e-09 -6.75211e-09 -9.77691e-09 -1.24828e-08 -1.60098e-08 -1.90693e-08 -2.30329e-08 -2.63567e-08 -3.0674e-08 -3.41934e-08 -3.87632e-08 -4.24346e-08 -4.71175e-08 -5.08769e-08 -5.54009e-08 -5.90004e-08 -6.25667e-08 -6.49711e-08 -6.77879e-08 5.76067e-08 4.50895e-08 3.27107e-08 2.09307e-08 1.0268e-08 1.0672e-09 -6.54375e-09 -1.25991e-08 -1.71964e-08 -2.04107e-08 -2.22315e-08 -2.25351e-08 -2.11025e-08 -1.77288e-08 -1.24711e-08 -5.97652e-09 4.90154e-10 5.66119e-09 8.89344e-09 1.01535e-08 9.6841e-09 7.74611e-09 4.50783e-09 3.33038e-11 -5.682e-09 -1.26462e-08 -2.07933e-08 -2.99057e-08 -3.95972e-08 -4.94092e-08 -5.92523e-08 9.34505e-08 1.05119e-07 1.09006e-07 1.11263e-07 1.11927e-07 1.10856e-07 1.09659e-07 1.06763e-07 1.04232e-07 1.00221e-07 9.66541e-08 9.19073e-08 8.75583e-08 8.23351e-08 7.74327e-08 7.19567e-08 6.67313e-08 6.12148e-08 5.59079e-08 5.05528e-08 4.54121e-08 4.03981e-08 3.56494e-08 3.11122e-08 2.69232e-08 2.29438e-08 1.93877e-08 1.59779e-08 1.29894e-08 1.00728e-08 7.42185e-09 4.79702e-09 2.141e-09 -5.12267e-10 -3.49111e-09 -6.51284e-09 -1.00078e-08 -1.36214e-08 -1.76973e-08 -2.19582e-08 -2.65927e-08 -3.14174e-08 -3.65218e-08 -4.17343e-08 -4.71683e-08 -5.25372e-08 -5.81186e-08 -6.33933e-08 -6.89197e-08 -7.38592e-08 -7.91219e-08 -8.35003e-08 -8.82881e-08 -9.18898e-08 -9.59786e-08 -9.85864e-08 -1.01701e-07 -1.03128e-07 -1.04926e-07 -1.05104e-07 -1.05023e-07 -1.03886e-07 -1.01168e-07 8.10093e-08 7.47747e-08 6.72289e-08 5.93775e-08 5.187e-08 4.49274e-08 3.85495e-08 3.26627e-08 2.72004e-08 2.21507e-08 1.75704e-08 1.35657e-08 1.02621e-08 7.75176e-09 6.00002e-09 4.727e-09 3.41199e-09 1.54497e-09 -1.12632e-09 -4.60437e-09 -8.77145e-09 -1.34856e-08 -1.86319e-08 -2.41524e-08 -3.00754e-08 -3.65254e-08 -4.37081e-08 -5.18556e-08 -6.10952e-08 -7.12441e-08 -8.16678e-08 8.33329e-08 8.77491e-08 8.80951e-08 8.67493e-08 8.45365e-08 8.10653e-08 7.82174e-08 7.42171e-08 7.12266e-08 6.71567e-08 6.40543e-08 6.002e-08 5.67847e-08 5.2836e-08 4.94932e-08 4.5677e-08 4.22924e-08 3.86498e-08 3.53147e-08 3.18866e-08 2.87125e-08 2.55483e-08 2.26547e-08 1.98097e-08 1.73092e-08 1.48358e-08 1.28002e-08 1.07346e-08 9.13755e-09 7.46483e-09 6.12577e-09 4.72096e-09 3.341e-09 1.94516e-09 2.59295e-10 -1.41568e-09 -3.52849e-09 -5.65173e-09 -8.19386e-09 -1.07816e-08 -1.3702e-08 -1.66746e-08 -1.9909e-08 -2.31491e-08 -2.66343e-08 -3.00193e-08 -3.37021e-08 -3.71186e-08 -4.09596e-08 -4.43151e-08 -4.82854e-08 -5.15174e-08 -5.5599e-08 -5.87002e-08 -6.28984e-08 -6.5951e-08 -7.02882e-08 -7.34478e-08 -7.78176e-08 -8.11086e-08 -8.47387e-08 -8.73811e-08 -8.84669e-08 9.88114e-08 9.88808e-08 9.46515e-08 8.87702e-08 8.19382e-08 7.43551e-08 6.61907e-08 5.76708e-08 4.905e-08 4.0594e-08 3.2569e-08 2.52264e-08 1.87677e-08 1.32991e-08 8.74533e-09 4.75532e-09 7.33396e-10 -3.91142e-09 -9.51559e-09 -1.6133e-08 -2.36358e-08 -3.18061e-08 -4.03821e-08 -4.90915e-08 -5.76677e-08 -6.58638e-08 -7.3485e-08 -8.04598e-08 -8.69093e-08 -9.30571e-08 -9.89435e-08 
</DataArray>
<DataArray Name="Warping_Y" format="ascii" type="Float64">