<?xml version="1.0"?>
<VTKFile byte_order="LittleEndian" type="UnstructuredGrid" version="0.1">
<UnstructuredGrid>
<Piece NumberOfCells="576" NumberOfPoints="2016">
<PointData>
<DataArray Name="Warping_X" format="ascii" type="Float64">
-8.27685e-09 -1.28974e-08 -7.96803e-09 -7.63067e-09 -7.30347e-09 -7.0124e-09 -6.5764e-09 -6.23865e-09 -5.6588e-09 -5.20275e-09 -4.42313e-09 -3.75919e-09 -2.73064e-09 -1.79771e-09 -4.81223e-10 7.48539e-10 2.38017e-09 3.90826e-09 5.87334e-09 7.68038e-09 9.99152e-09 1.20281e-08 1.46929e-08 1.68448e-08 1.98673e-08 2.18796e-08 2.52645e-08 2.66379e-08 3.03908e-08 3.04103e-08 3.44673e-08 3.2651e-08 3.66806e-08 3.32994e-08 3.65725e-08 3.2453e-08 3.41507e-08 3.00206e-08 2.98855e-08 2.60708e-08 2.4593e-08 2.11525e-08 1.90452e-08 1.59693e-08 1.3725e-08 1.10041e-08 8.86919e-09 6.49379e-09 4.57303e-09 2.529e-09 8.61221e-10 -8.7171e-10 -2.27865e-09 -3.72694e-09 -4.88475e-09 -6.08208e-09 -7.02339e-09 -8.00978e-09 -8.78998e-09 -9.60512e-09 -1.03038e-08 -1.09872e-08 -1.16546e-08 -1.22121e-08 -1.27716e-08 -8.85058e-09 -1.32204e-08 -1.18202e-08 -1.16728e-08 -7.21903e-09 -6.64637e-09 -6.1367e-09 -6.1028e-09 -6.06388e-09 -5.90823e-09 -5.70505e-09 -5.22975e-09 -4.65763e-09 -3.837e-09 -2.8588e-09 -1.74938e-09 -4.01461e-10 9.13263e-10 2.57706e-09 4.01997e-09 5.96446e-09 7.47364e-09 9.69441e-09 1.12091e-08 1.37281e-08 1.51611e-08 1.80141e-08 1.92205e-08 2.2436e-08 2.31839e-08 2.67479e-08 2.67225e-08 3.05139e-08 2.94103e-08 3.31284e-08 3.08401e-08 3.40262e-08 3.07698e-08 3.29815e-08 2.9206e-08 3.02357e-08 2.64011e-08 2.63629e-08 2.27675e-08 2.19693e-08 1.87312e-08 1.74876e-08 1.46184e-08 1.31604e-08 1.06302e-08 9.1017e-09 6.8741e-09 5.36196e-09 3.41455e-09 1.97914e-09 3.15515e-10 -9.81703e-10 -2.32841e-09 -3.41181e-09 -4.39258e-09 -5.18517e-09 -5.77366e-09 -6.2366e-09 -6.486e-09 -6.67518e-09 -6.81776e-09 -6.98398e-09 -7.83378e-09 -8.07732e-09 -7.91203e-09 -7.59953e-09 -7.53871e-09 -7.42708e-09 -7.15322e-09 -6.98869e-09 -6.7709e-09 -6.71828e-09 -6.3676e-09 -6.3761e-09 -5.89515e-09 -5.86487e-09 -5.3563e-09 -5.61116e-09 -4.75489e-09 -4.73153e-09 -4.06986e-09 -4.42003e-09 -3.27125e-09 -3.1988e-09 -2.40567e-09 -2.69888e-09 -1.363e-09 -1.17247e-09 -2.92095e-10 -4.38633e-10 1.01898e-09 1.4004e-09 2.31012e-09 2.32646e-09 3.89772e-09 4.53617e-09 5.41474e-09 5.55459e-09 7.27515e-09 8.22437e-09 9.01308e-09 9.20919e-09 1.11312e-08 1.24245e-08 1.30692e-08 1.3251e-08 1.54104e-08 1.70409e-08 1.75014e-08 1.76126e-08 1.99943e-08 2.18703e-08 2.21459e-08 2.21544e-08 2.46547e-08 2.6523e-08 2.66974e-08 2.66003e-08 2.89938e-08 3.04009e-08 3.06511e-08 3.04769e-08 3.24259e-08 3.28935e-08 3.33556e-08 3.31493e-08 3.43072e-08 3.36801e-08 3.42647e-08 3.4057e-08 3.42186e-08 3.27052e-08 3.31808e-08 3.29877e-08 3.21673e-08 3.0034e-08 3.03145e-08 3.01682e-08 2.85831e-08 2.5995e-08 2.62191e-08 2.61666e-08 2.41129e-08 2.11993e-08 2.15458e-08 2.1618e-08 1.93385e-08 1.62388e-08 1.67931e-08 1.69915e-08 1.46505e-08 1.14932e-08 1.22588e-08 1.25572e-08 1.02694e-08 7.15374e-09 8.09819e-09 8.44893e-09 6.30493e-09 3.30236e-09 4.38396e-09 4.72841e-09 2.80312e-09 -3.60671e-11 1.14168e-09 1.4276e-09 -2.2775e-10 -2.86803e-09 -1.63377e-09 -1.42786e-09 -2.80638e-09 -5.22584e-09 -3.97674e-09 -3.81347e-09 -4.98025e-09 -7.17436e-09 -5.95515e-09 -5.72021e-09 -6.82659e-09 -8.81453e-09 -7.6671e-09 -7.19199e-09 -8.44678e-09 -1.02609e-08 -9.2267e-09 -8.38946e-09 -9.86681e-09 -1.16564e-08 -1.05576e-08 -9.72379e-09 -1.1128e-08 -1.04568e-08 -8.39406e-09 -8.47716e-09 -8.58609e-09 -8.67434e-09 -8.76841e-09 -8.84788e-09 -8.93668e-09 -9.01538e-09 -9.10047e-09 -9.17819e-09 -9.25975e-09 -9.33542e-09 -9.41303e-09 -9.48556e-09 -9.55886e-09 -9.6275e-09 -9.69619e-09 -9.7604e-09 -9.82421e-09 -9.88358e-09 -9.94222e-09 -9.99642e-09 -1.00496e-08 -1.00984e-08 -1.01459e-08 -1.01889e-08 -1.02306e-08 -1.02677e-08 -1.03033e-08 -1.03342e-08 -1.03635e-08 -1.03881e-08 -1.04111e-08 -1.04292e-08 -1.04457e-08 -1.04573e-08 -1.04672e-08 -1.04722e-08 -1.04753e-08 -1.04736e-08 -1.04701e-08 -1.04617e-08 -1.04514e-08 -1.04363e-08 -1.04193e-08 -1.03974e-08 -1.03737e-08 -1.03451e-08 -1.03147e-08 -1.02794e-08 -1.02424e-08 -1.02006e-08 -1.01571e-08 -1.01089e-08 -1.00591e-08 -1.00046e-08 -9.94871e-09 -9.88833e-09 -9.82659e-09 -9.76066e-09 -9.69354e-09 -9.62259e-09 -9.55067e-09 -9.47544e-09 -9.39946e-09 -9.32097e-09 -9.24189e-09 -9.16146e-09 -9.08046e-09 -8.99975e-09 -8.91847e-09 -8.83966e-09 -8.763e-09 -8.69127e-09 -8.64133e-09 -8.59965e-09 -8.69705e-09 -8.81293e-09 -9.57381e-09 -8.64208e-09 -8.20982e-09 -7.7806e-09 -7.8169e-09 -7.81049e-09 -7.92937e-09 -8.01885e-09 -8.14692e-09 -8.25324e-09 -8.3779e-09 -8.48436e-09 -8.60393e-09 -8.70631e-09 -8.81975e-09 -8.91618e-09 -9.02278e-09 -9.11229e-09 -9.21154e-09 -9.29357e-09 -9.38516e-09 -9.45944e-09 -9.54322e-09 -9.60962e-09 -9.68551e-09 -9.74399e-09 -9.81199e-09 -9.86256e-09 -9.92269e-09 -9.96538e-09 -1.00177e-08 -1.00525e-08 -1.0097e-08 -1.0124e-08 -1.01607e-08 -1.01799e-08 -1.02088e-08 -1.02203e-08 -1.02414e-08 -1.02451e-08 -1.02584e-08 -1.02543e-08 -1.02598e-08 -1.02479e-08 -1.02455e-08 -1.02257e-08 -1.02154e-08 -1.01875e-08 -1.01692e-08 -1.01332e-08 -1.01067e-08 -1.00626e-08 -1.00277e-08 -9.9751e-09 -9.9317e-09 -9.87043e-09 -9.81819e-09 -9.74793e-09 -9.6865e-09 -9.60685e-09 -9.53575e-09 -9.44619e-09 -9.3648e-09 -9.26463e-09 -9.1721e-09 -9.06039e-09 -8.95555e-09 -8.83104e-09 -8.71222e-09 -8.5732e-09 -8.43804e-09 -8.28222e-09 -8.1276e-09 -7.95238e-09 -7.77599e-09 -7.58092e-09 -7.39025e-09 -7.1885e-09 -7.01606e-09 -6.86631e-09 -7.0144e-09 -6.96965e-09 -9.20173e-09 -5.64956e-09 -8.63427e-09 -7.94994e-09 -8.0319e-09 -6.99302e-09 -8.01684e-09 -8.30212e-09 -7.99573e-09 -7.62305e-09 -8.11816e-09 -8.52634e-09 -8.23399e-09 -8.02618e-09 -8.37177e-09 -8.73062e-09 -8.50345e-09 -8.34387e-09 -8.6338e-09 -8.92892e-09 -8.75905e-09 -8.61669e-09 -8.87803e-09 -9.12041e-09 -8.99309e-09 -8.85955e-09 -9.10114e-09 -9.30282e-09 -9.20626e-09 -9.0791e-09 -9.30435e-09 -9.47455e-09 -9.40023e-09 -9.27871e-09 -9.48922e-09 -9.63458e-09 -9.57648e-09 -9.46022e-09 -9.65698e-09 -9.78222e-09 -9.73608e-09 -9.62471e-09 -9.80854e-09 -9.91703e-09 -9.8798e-09 -9.77282e-09 -9.94449e-09 -1.00387e-08 -1.00081e-08 -9.90498e-09 -1.00652e-08 -1.01469e-08 -1.01214e-08 -1.00215e-08 -1.0171e-08 -1.02416e-08 -1.02197e-08 -1.01225e-08 -1.0262e-08 -1.03225e-08 -1.03034e-08 -1.02082e-08 -1.03383e-08 -1.03897e-08 -1.03724e-08 -1.02786e-08 -1.04e-08 -1.04429e-08 -1.04268e-08 -1.03339e-08 -1.04471e-08 -1.04822e-08 -1.04666e-08 -1.0374e-08 -1.04797e-08 -1.05076e-08 -1.04919e-08 -1.03991e-08 -1.04978e-08 -1.05191e-08 -1.05027e-08 -1.0409e-08 -1.05013e-08 -1.05167e-08 -1.0499e-08 -1.04038e-08 -1.04903e-08 -1.05004e-08 -1.04808e-08 -1.03834e-08 -1.04649e-08 -1.04704e-08 -1.04482e-08 -1.03477e-08 -1.04251e-08 -1.04268e-08 -1.04012e-08 -1.02966e-08 -1.03708e-08 -1.03697e-08 -1.03397e-08 -1.02301e-08 -1.03022e-08 -1.02993e-08 -1.0264e-08 -1.01479e-08 -1.02194e-08 -1.02158e-08 -1.01741e-08 -1.00499e-08 -1.01224e-08 -1.01196e-08 -1.00701e-08 -9.93582e-09 -1.00114e-08 -1.0011e-08 -9.95219e-09 -9.8054e-09 -9.88668e-09 -9.89045e-09 -9.82075e-09 -9.65835e-09 -9.74858e-09 -9.75838e-09 -9.67618e-09 -9.49437e-09 -9.5976e-09 -9.6154e-09 -9.51907e-09 -9.31325e-09 -9.43442e-09 -9.46206e-09 -9.35023e-09 -9.11502e-09 -9.25988e-09 -9.29888e-09 -9.17058e-09 -8.90038e-09 -9.07486e-09 -9.12609e-09 -8.98098e-09 -8.67148e-09 -8.87983e-09 -8.94339e-09 -8.78153e-09 -8.43359e-09 -8.67392e-09 -8.74988e-09 -8.57014e-09 -8.19747e-09 -8.45511e-09 -8.54394e-09 -8.34389e-09 -7.98019e-09 -8.21844e-09 -8.32719e-09 -8.09043e-09 -7.80452e-09 -8.00627e-09 2.81574e-09 -6.5149e-09 2.52182e-09 1.56643e-09 -1.49789e-09 -4.08355e-09 -5.64685e-09 -7.1531e-09 -8.47876e-09 -9.68304e-09 -1.07016e-08 -1.16007e-08 -1.24141e-08 -1.30969e-08 -1.37549e-08 -1.42743e-08 -1.4816e-08 -1.52123e-08 -1.56656e-08 -1.59683e-08 -1.63533e-08 -1.65835e-08 -1.69149e-08 -1.70882e-08 -1.73765e-08 -1.75042e-08 -1.7757e-08 -1.78475e-08 -1.80704e-08 -1.81297e-08 -1.83269e-08 -1.83593e-08 -1.85337e-08 -1.85426e-08 -1.86964e-08 -1.86841e-08 -1.88188e-08 -1.8787e-08 -1.89037e-08 -1.88537e-08 -1.89531e-08 -1.88855e-08 -1.8968e-08 -1.88834e-08 -1.89491e-08 -1.88477e-08 -1.88965e-08 -1.87783e-08 -1.88098e-08 -1.86744e-08 -1.86879e-08 -1.85346e-08 -1.85291e-08 -1.83572e-08 -1.83311e-08 -1.81391e-08 -1.80903e-08 -1.78765e-08 -1.78023e-08 -1.75641e-08 -1.74606e-08 -1.71946e-08 -1.70567e-08 -1.67585e-08 -1.65794e-08 -1.62429e-08 -1.60134e-08 -1.56307e-08 -1.53386e-08 -1.48989e-08 -1.45278e-08 -1.40169e-08 -1.35448e-08 -1.29452e-08 -1.23403e-08 -1.16287e-08 -1.08667e-08 -1.00582e-08 -9.07691e-09 -8.1726e-09 -7.1306e-09 5.84523e-09 -1.09615e-09 -6.92235e-10 -9.74631e-09 -9.12982e-09 -9.43699e-09 -9.91288e-09 -1.03847e-08 -1.07908e-08 -1.1187e-08 -1.15544e-08 -1.19069e-08 -1.22357e-08 -1.25482e-08 -1.28426e-08 -1.31206e-08 -1.33836e-08 -1.36308e-08 -1.38655e-08 -1.40853e-08 -1.42944e-08 -1.44895e-08 -1.46754e-08 -1.48481e-08 -1.50129e-08 -1.5165e-08 -1.53103e-08 -1.54434e-08 -1.55705e-08 -1.56857e-08 -1.57955e-08 -1.58938e-08 -1.59871e-08 -1.60692e-08 -1.61467e-08 -1.62131e-08 -1.62751e-08 -1.63262e-08 -1.63732e-08 -1.64093e-08 -1.64414e-08 -1.64628e-08 -1.64802e-08 -1.64869e-08 -1.64897e-08 -1.64818e-08 -1.64701e-08 -1.64476e-08 -1.64213e-08 -1.63843e-08 -1.63433e-08 -1.62916e-08 -1.62359e-08 -1.61693e-08 -1.60986e-08 -1.60169e-08 -1.59308e-08 -1.58337e-08 -1.57319e-08 -1.56188e-08 -1.55006e-08 -1.53709e-08 -1.52355e-08 -1.50882e-08 -1.49346e-08 -1.47684e-08 -1.4595e-08 -1.44082e-08 -1.42129e-08 -1.40032e-08 -1.37831e-08 -1.35472e-08 -1.32987e-08 -1.30321e-08 -1.27503e-08 -1.24472e-08 -1.21272e-08 -1.17813e-08 -1.1423e-08 -1.10324e-08 -1.06603e-08 -1.02487e-08 -1.00176e-08 -6.28223e-09 -6.21405e-09 -7.17584e-09 -7.60189e-09 -8.39901e-09 -8.59226e-09 -9.40423e-09 -9.60124e-09 -1.02117e-08 -1.04436e-08 -1.07308e-08 -1.11574e-08 -1.17144e-08 -1.17916e-08 -1.18121e-08 -1.23589e-08 -1.29344e-08 -1.28841e-08 -1.27067e-08 -1.33474e-08 -1.39365e-08 -1.37887e-08 -1.34612e-08 -1.41715e-08 -1.47663e-08 -1.4547e-08 -1.41046e-08 -1.48652e-08 -1.54597e-08 -1.51874e-08 -1.46576e-08 -1.54533e-08 -1.60434e-08 -1.57317e-08 -1.51358e-08 -1.59547e-08 -1.65378e-08 -1.61967e-08 -1.55511e-08 -1.63839e-08 -1.69582e-08 -1.65951e-08 -1.59121e-08 -1.67519e-08 -1.73159e-08 -1.69365e-08 -1.62256e-08 -1.7067e-08 -1.76196e-08 -1.72281e-08 -1.64964e-08 -1.73354e-08 -1.78758e-08 -1.74754e-08 -1.67283e-08 -1.75617e-08 -1.80892e-08 -1.76822e-08 -1.69239e-08 -1.77493e-08 -1.82634e-08 -1.78516e-08 -1.70853e-08 -1.79007e-08 -1.84008e-08 -1.79858e-08 -1.72138e-08 -1.80177e-08 -1.85032e-08 -1.80861e-08 -1.73105e-08 -1.81014e-08 -1.85719e-08 -1.81536e-08 -1.7376e-08 -1.81527e-08 -1.86074e-08 -1.81889e-08 -1.74108e-08 -1.81719e-08 -1.86098e-08 -1.81919e-08 -1.74148e-08 -1.81588e-08 -1.85791e-08 -1.81626e-08 -1.73879e-08 -1.81131e-08 -1.85142e-08 -1.81002e-08 -1.73298e-08 -1.8034e-08 -1.84139e-08 -1.80036e-08 -1.72397e-08 -1.79199e-08 -1.82762e-08 -1.78712e-08 -1.71164e-08 -1.7769e-08 -1.80981e-08 -1.77006e-08 -1.69585e-08 -1.75784e-08 -1.78757e-08 -1.74883e-08 -1.67639e-08 -1.73443e-08 -1.76034e-08 -1.72299e-08 -1.65295e-08 -1.70613e-08 -1.72735e-08 -1.69191e-08 -1.62513e-08 -1.67221e-08 -1.68758e-08 -1.65472e-08 -1.59241e-08 -1.63168e-08 -1.6396e-08 -1.61026e-08 -1.55406e-08 -1.5832e-08 -1.58147e-08 -1.55694e-08 -1.50909e-08 -1.52491e-08 -1.5105e-08 -1.49256e-08 -1.45618e-08 -1.45427e-08 -1.42302e-08 -1.41411e-08 -1.39355e-08 -1.36774e-08 -1.3139e-08 -1.31737e-08 -1.31876e-08 -1.26042e-08 -1.17606e-08 -1.19648e-08 -1.22847e-08 -1.12539e-08 -9.99488e-09 -1.04299e-08 -1.11807e-08 -9.52396e-09 -7.71347e-09 -8.44618e-09 -9.81493e-09 -7.30158e-09 -4.65412e-09 -5.87989e-09 -8.08228e-09 -4.18075e-09 -9.70264e-10 -2.17626e-09 -5.99782e-09 -1.93171e-09 -1.107e-08 -1.0272e-08 -8.79666e-09 -7.04763e-09 -5.13653e-09 -3.40463e-09 -1.45182e-09 2.64718e-10 2.31406e-09 4.00446e-09 6.1871e-09 7.87651e-09 1.02453e-08 1.19439e-08 1.45517e-08 1.62513e-08 1.91561e-08 2.08254e-08 2.40971e-08 2.56653e-08 2.93928e-08 3.07167e-08 3.50129e-08 3.58279e-08 4.08255e-08 4.0681e-08 4.64851e-08 4.47736e-08 5.13458e-08 4.76055e-08 5.46231e-08 4.89948e-08 5.57953e-08 4.90347e-08 5.47189e-08 4.77246e-08 5.15294e-08 4.49692e-08 4.67444e-08 4.09488e-08 4.11514e-08 3.61656e-08 3.54051e-08 3.11288e-08 2.98611e-08 2.61653e-08 2.46619e-08 2.14373e-08 1.98499e-08 1.70128e-08 1.54221e-08 1.29103e-08 1.13579e-08 9.12519e-09 7.63162e-09 5.64366e-09 4.21761e-09 2.45272e-09 1.10296e-09 -4.50386e-10 -1.72079e-09 -3.03749e-09 -4.20513e-09 -5.33952e-09 -6.94404e-09 -5.13179e-09 -3.54418e-09 -2.04831e-09 -5.7708e-10 7.04314e-10 2.166e-09 3.41674e-09 4.96293e-09 6.31261e-09 8.02103e-09 9.54818e-09 1.14822e-08 1.32244e-08 1.54369e-08 1.73995e-08 1.99371e-08 2.20887e-08 2.49952e-08 2.7249e-08 3.05646e-08 3.27415e-08 3.64963e-08 3.8273e-08 4.24631e-08 4.33665e-08 4.78945e-08 4.74548e-08 5.20469e-08 5.00809e-08 5.4288e-08 5.09979e-08 5.432e-08 5.0132e-08 5.21405e-08 4.75562e-08 4.80414e-08 4.35141e-08 4.26513e-08 3.84587e-08 3.67133e-08 3.29551e-08 3.07994e-08 2.74802e-08 2.52372e-08 2.23264e-08 2.01737e-08 1.76294e-08 1.565e-08 1.34255e-08 1.16463e-08 9.69107e-09 8.10235e-09 6.35941e-09 4.92208e-09 3.3245e-09 1.96556e-09 4.3474e-10 -9.6099e-10 -2.51719e-09 -4.12178e-09 -5.81919e-09 -7.78764e-09 -1.20939e-08 -1.02166e-08 -1.04544e-08 -8.81465e-09 -8.35574e-09 -7.49124e-09 -6.63151e-09 -5.92821e-09 -4.95917e-09 -4.381e-09 -3.37177e-09 -2.72032e-09 -1.48027e-09 -1.10543e-09 -3.37521e-10 6.16541e-10 2.07923e-09 2.27181e-09 2.69323e-09 4.06838e-09 5.77581e-09 5.77609e-09 5.87894e-09 7.68492e-09 9.67141e-09 9.48069e-09 9.34482e-09 1.15471e-08 1.38333e-08 1.34698e-08 1.31821e-08 1.57325e-08 1.83204e-08 1.78123e-08 1.745e-08 2.02967e-08 2.31726e-08 2.25483e-08 2.21732e-08 2.52606e-08 2.83984e-08 2.7676e-08 2.73286e-08 3.05918e-08 3.39498e-08 3.3129e-08 3.28146e-08 3.61666e-08 3.96712e-08 3.87318e-08 3.83988e-08 4.17023e-08 4.52126e-08 4.41346e-08 4.3665e-08 4.66871e-08 4.99668e-08 4.87651e-08 4.80359e-08 5.04485e-08 5.31971e-08 5.1927e-08 5.09319e-08 5.24523e-08 5.43632e-08 5.30751e-08 5.19638e-08 5.24949e-08 5.32898e-08 5.20147e-08 5.10021e-08 5.05733e-08 5.01445e-08 4.89327e-08 4.8172e-08 4.68854e-08 4.54634e-08 4.43707e-08 4.38589e-08 4.1964e-08 3.99862e-08 3.90271e-08 3.86414e-08 3.6485e-08 3.43274e-08 3.34804e-08 3.3099e-08 3.09669e-08 2.88458e-08 2.80873e-08 2.76511e-08 2.56993e-08 2.37061e-08 2.30302e-08 2.2533e-08 2.08133e-08 1.89666e-08 1.83836e-08 1.78474e-08 1.63504e-08 1.46319e-08 1.41598e-08 1.36179e-08 1.2303e-08 1.06803e-08 1.03351e-08 9.82091e-09 8.63513e-09 7.07781e-09 6.86498e-09 6.4037e-09 5.29667e-09 3.78938e-09 3.6964e-09 3.29222e-09 2.23609e-09 7.8831e-10 7.82977e-10 4.00546e-10 -5.81487e-10 -1.92232e-09 -1.89291e-09 -2.35114e-09 -3.12142e-09 -4.31172e-09 -4.2219e-09 -5.01815e-09 -5.36126e-09 -1.21204e-09 4.63296e-10 -4.19764e-09 -3.43676e-09 -2.65739e-09 -3.33078e-09 -4.60482e-09 -5.67769e-09 -6.22684e-09 -6.70408e-09 -7.07735e-09 -7.38333e-09 -7.64801e-09 -7.85651e-09 -8.06459e-09 -8.2215e-09 -8.39546e-09 -8.52079e-09 -8.67173e-09 -8.77539e-09 -8.90906e-09 -8.99623e-09 -9.11585e-09 -9.18945e-09 -9.29693e-09 -9.35871e-09 -9.45528e-09 -9.50636e-09 -9.59284e-09 -9.63399e-09 -9.71097e-09 -9.74273e-09 -9.81063e-09 -9.8334e-09 -9.89255e-09 -9.90663e-09 -9.95727e-09 -9.96288e-09 -1.00052e-08 -1.00025e-08 -1.00366e-08 -1.00258e-08 -1.00519e-08 -1.0033e-08 -1.0051e-08 -1.00241e-08 -1.00342e-08 -9.99934e-09 -1.00015e-08 -9.9587e-09 -9.95291e-09 -9.90221e-09 -9.88847e-09 -9.82983e-09 -9.80814e-09 -9.74154e-09 -9.71189e-09 -9.63731e-09 -9.59968e-09 -9.51713e-09 -9.47158e-09 -9.38113e-09 -9.32782e-09 -9.22967e-09 -9.16901e-09 -9.06363e-09 -8.99654e-09 -8.88499e-09 -8.81345e-09 -8.698e-09 -8.62621e-09 -8.51164e-09 -8.44838e-09 -8.34458e-09 -8.30822e-09 -8.23541e-09 -8.26349e-09 -8.26373e-09 -8.43366e-09 -8.60229e-09 -9.18562e-09 -9.93901e-09 -1.06466e-08 -5.58064e-09 -6.49638e-09 -7.17942e-09 -7.67328e-09 -8.06008e-09 -8.37977e-09 -8.65318e-09 -8.89164e-09 -9.10164e-09 -9.28709e-09 -9.45054e-09 -9.59371e-09 -9.7178e-09 -9.82373e-09 -9.91216e-09 -9.98362e-09 -1.00385e-08 -1.00771e-08 -1.00996e-08 -1.01063e-08 -1.00972e-08 -1.00724e-08 -1.0032e-08 -9.97592e-09 -9.90418e-09 -9.81675e-09 -9.71357e-09 -9.59461e-09 -9.45991e-09 -9.30961e-09 -9.14415e-09 -8.96448e-09 -8.77266e-09 -8.57282e-09 -8.37345e-09 -8.19232e-09 -8.06632e-09 -8.07331e-09 -8.43558e-09 -4.29959e-09 -4.24181e-09 -5.28022e-09 -6.06109e-09 -6.58726e-09 -6.97834e-09 -7.32191e-09 -7.57286e-09 -7.82825e-09 -8.0051e-09 -8.2125e-09 -8.3475e-09 -8.52513e-09 -8.6332e-09 -8.79014e-09 -8.87885e-09 -9.01994e-09 -9.09342e-09 -9.22135e-09 -9.28201e-09 -9.39842e-09 -9.44773e-09 -9.55366e-09 -9.5926e-09 -9.68877e-09 -9.71802e-09 -9.80495e-09 -9.82499e-09 -9.90305e-09 -9.91425e-09 -9.98372e-09 -9.98636e-09 -1.00475e-08 -1.00417e-08 -1.00946e-08 -1.00807e-08 -1.01255e-08 -1.01035e-08 -1.01403e-08 -1.01104e-08 -1.01393e-08 -1.01014e-08 -1.01224e-08 -1.00766e-08 -1.00897e-08 -1.00361e-08 -1.00414e-08 -9.97989e-09 -9.9773e-09 -9.90793e-09 -9.89746e-09 -9.82021e-09 -9.80184e-09 -9.71668e-09 -9.6904e-09 -9.59734e-09 -9.56318e-09 -9.46226e-09 -9.42035e-09 -9.31172e-09 -9.26236e-09 -9.14639e-09 -9.09025e-09 -8.96775e-09 -8.90631e-09 -8.779e-09 -8.71526e-09 -8.58677e-09 -8.52696e-09 -8.40485e-09 -8.36235e-09 -8.26321e-09 -8.26474e-09 -8.22359e-09 -8.32035e-09 -8.39947e-09 -8.66956e-09 -8.88789e-09 -9.66534e-09 -3.74523e-09 -5.63641e-09 -6.71259e-09 -7.37545e-09 -7.84156e-09 -8.20128e-09 -8.49675e-09 -8.74845e-09 -8.96704e-09 -9.15848e-09 -9.32631e-09 -9.47281e-09 -9.5995e-09 -9.70747e-09 -9.79753e-09 -9.87027e-09 -9.92614e-09 -9.96549e-09 -9.98858e-09 -9.99559e-09 -9.98668e-09 -9.96191e-09 -9.92134e-09 -9.86498e-09 -9.79281e-09 -9.7048e-09 -9.60092e-09 -9.48118e-09 -9.34569e-09 -9.19481e-09 -9.0294e-09 -8.85135e-09 -8.66472e-09 -8.478e-09 -8.30895e-09 -8.19472e-09 -8.21204e-09 -8.52707e-09 -9.45458e-09 -1.47017e-08 -1.304e-08 -1.31227e-08 -1.31103e-08 -1.31013e-08 -1.3083e-08 -1.30695e-08 -1.30804e-08 -1.30953e-08 -1.31373e-08 -1.31818e-08 -1.32491e-08 -1.33175e-08 -1.34029e-08 -1.34878e-08 -1.35848e-08 -1.368e-08 -1.3783e-08 -1.3883e-08 -1.39876e-08 -1.40883e-08 -1.41908e-08 -1.42887e-08 -1.43864e-08 -1.4479e-08 -1.45698e-08 -1.46549e-08 -1.47371e-08 -1.48133e-08 -1.48857e-08 -1.49517e-08 -1.50132e-08 -1.50682e-08 -1.51182e-08 -1.51615e-08 -1.51995e-08 -1.52306e-08 -1.52561e-08 -1.52747e-08 -1.52875e-08 -1.52934e-08 -1.52933e-08 -1.52863e-08 -1.52734e-08 -1.52535e-08 -1.52277e-08 -1.5195e-08 -1.51564e-08 -1.5111e-08 -1.50599e-08 -1.50021e-08 -1.49388e-08 -1.48689e-08 -1.47939e-08 -1.47125e-08 -1.46265e-08 -1.45343e-08 -1.44383e-08 -1.43364e-08 -1.42316e-08 -1.41214e-08 -1.40096e-08 -1.3893e-08 -1.37766e-08 -1.36561e-08 -1.35384e-08 -1.34177e-08 -1.33032e-08 -1.31872e-08 -1.30826e-08 -1.29785e-08 -1.28947e-08 -1.2814e-08 -1.27704e-08 -1.27334e-08 -1.27716e-08 -1.28212e-08 -1.30427e-08 -1.32825e-08 -1.39719e-08 -1.22923e-08 -1.28552e-08 -9.71775e-09 -1.14492e-08 -1.1623e-08 -1.19342e-08 -1.23099e-08 -1.27065e-08 -1.31015e-08 -1.34819e-08 -1.38408e-08 -1.41745e-08 -1.44811e-08 -1.47594e-08 -1.50093e-08 -1.52304e-08 -1.54229e-08 -1.55868e-08 -1.57222e-08 -1.58293e-08 -1.59081e-08 -1.59587e-08 -1.59812e-08 -1.59755e-08 -1.59417e-08 -1.58797e-08 -1.57896e-08 -1.56711e-08 -1.55243e-08 -1.53488e-08 -1.51445e-08 -1.49109e-08 -1.46476e-08 -1.43537e-08 -1.40284e-08 -1.36701e-08 -1.32766e-08 -1.28447e-08 -1.23695e-08 -1.18429e-08 -1.12507e-08 -1.05639e-08 -1.1927e-08 -1.20184e-08 -1.21415e-08 -1.22766e-08 -1.23786e-08 -1.24882e-08 -1.26022e-08 -1.27212e-08 -1.28487e-08 -1.29783e-08 -1.31155e-08 -1.32526e-08 -1.33943e-08 -1.35341e-08 -1.36758e-08 -1.38142e-08 -1.39525e-08 -1.40863e-08 -1.42183e-08 -1.43452e-08 -1.44689e-08 -1.4587e-08 -1.4701e-08 -1.4809e-08 -1.49122e-08 -1.5009e-08 -1.51006e-08 -1.51856e-08 -1.5265e-08 -1.53377e-08 -1.54044e-08 -1.54643e-08 -1.55181e-08 -1.5565e-08 -1.56057e-08 -1.56393e-08 -1.56666e-08 -1.56869e-08 -1.57008e-08 -1.57076e-08 -1.5708e-08 -1.57013e-08 -1.56882e-08 -1.5668e-08 -1.56413e-08 -1.56076e-08 -1.55675e-08 -1.55203e-08 -1.54668e-08 -1.54062e-08 -1.53394e-08 -1.52656e-08 -1.51857e-08 -1.50989e-08 -1.50062e-08 -1.49066e-08 -1.48013e-08 -1.46894e-08 -1.45721e-08 -1.44483e-08 -1.43195e-08 -1.41845e-08 -1.40452e-08 -1.38999e-08 -1.37512e-08 -1.35971e-08 -1.34408e-08 -1.32798e-08 -1.31188e-08 -1.29541e-08 -1.27937e-08 -1.26311e-08 -1.24828e-08 -1.23344e-08 -1.22268e-08 -1.21223e-08 -1.21326e-08 -1.2151e-08 -1.24952e-08 -1.29463e-08 -1.28589e-08 -1.28681e-08 -1.29521e-08 -1.30915e-08 -1.32703e-08 -1.34748e-08 -1.36935e-08 -1.39171e-08 -1.4138e-08 -1.43505e-08 -1.455e-08 -1.47328e-08 -1.48964e-08 -1.50387e-08 -1.51581e-08 -1.52535e-08 -1.5324e-08 -1.53691e-08 -1.53884e-08 -1.53815e-08 -1.53486e-08 -1.52896e-08 -1.52047e-08 -1.50943e-08 -1.49591e-08 -1.47998e-08 -1.46177e-08 -1.44144e-08 -1.4192e-08 -1.39537e-08 -1.37033e-08 -1.34465e-08 -1.31903e-08 -1.29446e-08 -1.27219e-08 -1.25377e-08 -1.24079e-08 -1.23388e-08 -1.06283e-08 -1.08825e-08 -1.08563e-08 -1.07702e-08 -1.04353e-08 -1.01111e-08 -9.3074e-09 -8.5397e-09 -7.25178e-09 -6.00609e-09 -4.28035e-09 -2.59502e-09 -5.05747e-10 1.54589e-09 3.92844e-09 6.27062e-09 8.89282e-09 1.14599e-08 1.42757e-08 1.70016e-08 1.99482e-08 2.27379e-08 2.57049e-08 2.84033e-08 3.12142e-08 3.35925e-08 3.60162e-08 3.78029e-08 3.95972e-08 4.0552e-08 4.15155e-08 4.1509e-08 4.15207e-08 4.05596e-08 3.96126e-08 3.78188e-08 3.60394e-08 3.36136e-08 3.12376e-08 2.84196e-08 2.57156e-08 2.27341e-08 1.99283e-08 1.6958e-08 1.42029e-08 1.13508e-08 8.73646e-09 6.06013e-09 3.64475e-09 1.18139e-09 -9.80555e-10 -3.18956e-09 -5.03528e-09 -6.93406e-09 -8.4027e-09 -9.93101e-09 -1.09934e-08 -1.21161e-08 -1.28152e-08 -1.35599e-08 -1.40938e-08 -1.46186e-08 -1.47046e-08 -7.57105e-09 -5.61549e-09 -3.2199e-09 -4.02816e-10 2.81383e-09 6.42452e-09 1.04449e-08 1.48956e-08 1.97815e-08 2.50635e-08 3.0618e-08 3.61823e-08 4.13235e-08 4.54987e-08 4.82101e-08 4.91365e-08 4.81698e-08 4.54191e-08 4.12095e-08 3.60433e-08 3.0466e-08 2.49121e-08 1.96464e-08 1.47976e-08 1.04141e-08 6.50527e-09 3.06999e-09 1.18207e-10 -2.31441e-09 -4.16232e-09 -5.30006e-09 -1.17369e-08 -1.07804e-08 -9.51244e-09 -8.37705e-09 -7.15927e-09 -6.05929e-09 -4.64872e-09 -3.35962e-09 -1.71235e-09 -1.73901e-10 1.70129e-09 3.49626e-09 5.58537e-09 7.62947e-09 9.92517e-09 1.22099e-08 1.47043e-08 1.72207e-08 1.98866e-08 2.26169e-08 2.53822e-08 2.82848e-08 3.09993e-08 3.39845e-08 3.63984e-08 3.93031e-08 4.11012e-08 4.36838e-08 4.45888e-08 4.65669e-08 4.64397e-08 4.75622e-08 4.64244e-08 4.65347e-08 4.45435e-08 4.36211e-08 4.10288e-08 3.92157e-08 3.63063e-08 3.38829e-08 3.08994e-08 2.81829e-08 2.5289e-08 2.25304e-08 1.98176e-08 1.71689e-08 1.46821e-08 1.22185e-08 9.98111e-09 7.73578e-09 5.76485e-09 3.75462e-09 2.06947e-09 3.13891e-10 -1.06568e-09 -2.5382e-09 -3.60935e-09 -4.77819e-09 -5.59522e-09 -6.4989e-09 -7.29066e-09 -8.1801e-09 -8.62631e-09 -1.18497e-08 -1.08309e-08 -9.11926e-09 -6.7249e-09 -3.64824e-09 6.36441e-11 4.33674e-09 9.09529e-09 1.42723e-08 1.97876e-08 2.55014e-08 3.11583e-08 3.63558e-08 4.05856e-08 4.33526e-08 4.43101e-08 4.3335e-08 4.05506e-08 3.63075e-08 3.11067e-08 2.54614e-08 1.97777e-08 1.43161e-08 9.22601e-09 4.60244e-09 5.34048e-10 -2.87677e-09 -5.52679e-09 -7.33753e-09 -8.2662e-09 -8.21037e-09 4.49495e-09 5.72193e-09 6.52925e-09 7.29054e-09 8.09142e-09 8.67791e-09 9.47451e-09 1.00686e-08 1.08847e-08 1.15773e-08 1.24771e-08 1.33293e-08 1.43714e-08 1.54164e-08 1.6637e-08 1.78887e-08 1.92996e-08 2.07556e-08 2.23416e-08 2.39808e-08 2.56942e-08 2.74714e-08 2.92239e-08 3.10582e-08 3.27131e-08 3.44775e-08 3.58557e-08 3.73751e-08 3.82826e-08 3.9358e-08 3.96373e-08 4.00991e-08 3.96903e-08 3.94642e-08 3.84359e-08 3.75754e-08 3.60931e-08 3.47515e-08 3.30128e-08 3.13823e-08 2.95621e-08 2.78216e-08 2.60475e-08 2.43345e-08 2.26875e-08 2.10906e-08 1.96152e-08 1.81816e-08 1.68963e-08 1.56384e-08 1.45401e-08 1.34395e-08 1.25026e-08 1.15099e-08 1.06802e-08 9.71225e-09 8.89129e-09 7.83617e-09 6.87368e-09 5.63131e-09 4.20933e-09 2.57583e-09 6.62213e-10 -2.59809e-09 -3.05734e-09 -2.68327e-09 -1.59877e-09 1.44828e-10 2.45755e-09 5.23984e-09 8.41101e-09 1.19181e-08 1.57172e-08 1.97395e-08 2.385e-08 2.78018e-08 3.12082e-08 3.35794e-08 3.44753e-08 3.37122e-08 3.14601e-08 2.81511e-08 2.42731e-08 2.02145e-08 1.62245e-08 1.24395e-08 8.92809e-09 5.7324e-09 2.9017e-09 5.10623e-10 -1.35076e-09 -2.6144e-09 -3.28133e-09 -3.41297e-09 -6.1024e-10 -1.95565e-10 1.91328e-10 4.59098e-10 8.52803e-10 1.118e-09 1.79381e-09 2.30363e-09 3.24163e-09 4.01263e-09 5.16203e-09 6.16655e-09 7.49973e-09 8.70658e-09 1.02183e-08 1.16e-08 1.3293e-08 1.4822e-08 1.66939e-08 1.83324e-08 2.03641e-08 2.20491e-08 2.41919e-08 2.58168e-08 2.79774e-08 2.93805e-08 3.14099e-08 3.2387e-08 3.40846e-08 3.44387e-08 3.55887e-08 3.52071e-08 3.56498e-08 3.45589e-08 3.42616e-08 3.26152e-08 3.1686e-08 2.96969e-08 2.83305e-08 2.61985e-08 2.4599e-08 2.24742e-08 2.08037e-08 1.87802e-08 1.71456e-08 1.52724e-08 1.37363e-08 1.20314e-08 1.06297e-08 9.09238e-09 7.84816e-09 6.46887e-09 5.40089e-09 4.17264e-09 3.29741e-09 2.22834e-09 1.55364e-09 6.69274e-10 1.57915e-10 -5.40638e-10 -1.15887e-09 -1.91785e-09 -3.0188e-09 4.00137e-09 3.82858e-09 4.55598e-09 5.84949e-09 7.54363e-09 9.5821e-09 1.19606e-08 1.46869e-08 1.77559e-08 2.11325e-08 2.47323e-08 2.83965e-08 3.18703e-08 3.48052e-08 3.68108e-08 3.75614e-08 3.69235e-08 3.50186e-08 3.21644e-08 2.87484e-08 2.51191e-08 2.15326e-08 1.8148e-08 1.5048e-08 1.22617e-08 9.78097e-09 7.57301e-09 5.59887e-09 3.8436e-09 2.33784e-09 1.19507e-09 
</DataArray>
<DataArray Name="Warping_Y" format="ascii" type="Float64">