<?xml version="1.0"?>
<VTKFile byte_order="LittleEndian" type="UnstructuredGrid" version="0.1">
<UnstructuredGrid>
<Piece NumberOfCells="576" NumberOfPoints="2016">
<PointData>
<DataArray Name="Warping_X" format="ascii" type="Float64">
-1.64127e-09 5.69989e-09 8.25759e-09 1.20108e-08 1.99784e-08 2.24832e-08 2.90924e-08 3.05827e-08 3.59562e-08 3.64569e-08 4.06042e-08 4.0052e-08 4.29684e-08 4.1328e-08 4.30359e-08 4.03901e-08 4.09296e-08 3.74864e-08 3.68869e-08 3.29351e-08 3.1211e-08 2.71062e-08 2.42906e-08 2.04835e-08 1.66912e-08 1.37574e-08 9.24827e-09 7.76373e-09 3.01364e-09 3.05308e-09 -1.17592e-09 -6.08684e-10 -3.39104e-09 -3.85254e-09 -4.71818e-09 -7.0058e-09 -6.64497e-09 -1.03832e-08 -1.03171e-08 -1.4623e-08 -1.59109e-08 -2.0031e-08 -2.26948e-08 -2.61535e-08 -2.96938e-08 -3.22338e-08 -3.61313e-08 -3.76456e-08 -4.15006e-08 -4.19701e-08 -4.54796e-08 -4.49097e-08 -4.78365e-08 -4.62172e-08 -4.83888e-08 -4.56815e-08 -4.69912e-08 -4.31139e-08 -4.34405e-08 -3.82017e-08 -3.72491e-08 -3.02247e-08 -2.74916e-08 -1.79333e-08 -1.04396e-08 9.04066e-09 3.86697e-09 5.27177e-09 5.94432e-09 -1.62655e-08 -1.59701e-08 -1.59743e-08 -1.49423e-08 -1.37309e-08 -1.21081e-08 -1.00393e-08 -8.20642e-09 -5.80688e-09 -4.07044e-09 -1.78468e-09 -3.5687e-10 1.50337e-09 2.51413e-09 3.78541e-09 4.38576e-09 5.02831e-09 5.30886e-09 5.34909e-09 5.42921e-09 4.9064e-09 4.90665e-09 3.85696e-09 3.89551e-09 2.37065e-09 2.53665e-09 6.48589e-10 9.19437e-10 -1.10472e-09 -9.46801e-10 -2.76471e-09 -3.04342e-09 -4.30886e-09 -5.18321e-09 -5.71756e-09 -7.06829e-09 -7.00486e-09 -8.54805e-09 -8.22942e-09 -9.6641e-09 -9.35152e-09 -1.04681e-08 -1.02247e-08 -1.09133e-08 -1.06736e-08 -1.08757e-08 -1.05264e-08 -1.01941e-08 -9.60669e-09 -8.68933e-09 -7.73804e-09 -6.20852e-09 -4.81788e-09 -2.7392e-09 -9.51642e-10 1.4538e-09 3.44276e-09 5.75241e-09 7.59198e-09 9.2142e-09 1.0441e-08 1.07894e-08 1.10032e-08 9.89483e-09 -3.98642e-09 -8.25527e-09 -1.30392e-08 -3.86122e-09 7.05001e-09 1.39267e-09 -7.45306e-09 5.33137e-09 1.59156e-08 1.00169e-08 -2.04365e-09 1.3139e-08 2.27318e-08 1.68844e-08 3.11412e-09 1.90691e-08 2.76589e-08 2.17224e-08 7.60595e-09 2.2947e-08 3.07536e-08 2.45086e-08 1.10159e-08 2.4855e-08 3.20217e-08 2.54516e-08 1.31336e-08 2.50454e-08 3.15164e-08 2.48396e-08 1.39683e-08 2.37953e-08 2.93812e-08 2.29249e-08 1.36506e-08 2.13414e-08 2.58304e-08 1.9916e-08 1.23406e-08 1.78988e-08 2.11384e-08 1.60268e-08 1.02024e-08 1.37128e-08 1.56817e-08 1.15352e-08 7.43222e-09 9.1171e-09 1.00141e-08 6.84632e-09 4.31387e-09 4.5851e-09 4.85954e-09 2.52019e-09 1.25278e-09 7.02465e-10 8.49487e-10 -8.38943e-10 -1.29345e-09 -2.03512e-09 -1.92929e-09 -2.9313e-09 -3.05628e-09 -3.59272e-09 -3.96578e-09 -4.08323e-09 -4.19271e-09 -4.56937e-09 -5.89169e-09 -5.1058e-09 -5.19669e-09 -5.87213e-09 -8.34625e-09 -6.83647e-09 -6.5918e-09 -8.15499e-09 -1.18599e-08 -9.6727e-09 -8.61073e-09 -1.14664e-08 -1.64254e-08 -1.33987e-08 -1.10691e-08 -1.53852e-08 -2.14922e-08 -1.74737e-08 -1.35698e-08 -1.93744e-08 -2.63971e-08 -2.13736e-08 -1.57375e-08 -2.29845e-08 -3.06341e-08 -2.47087e-08 -1.72953e-08 -2.58886e-08 -3.38744e-08 -2.72027e-08 -1.80388e-08 -2.78358e-08 -3.58967e-08 -2.86324e-08 -1.77899e-08 -2.85928e-08 -3.6537e-08 -2.87647e-08 -1.63815e-08 -2.78943e-08 -3.56685e-08 -2.73155e-08 -1.37033e-08 -2.54446e-08 -3.31531e-08 -2.39953e-08 -9.81794e-09 -2.10345e-08 -2.86988e-08 -1.86901e-08 -5.0693e-09 -1.47224e-08 -2.16582e-08 -1.16244e-08 -1.50878e-10 -6.999e-09 -1.07313e-08 -3.54643e-09 3.79877e-09 1.74841e-09 -1.30022e-08 -2.15869e-09 -2.72581e-09 -3.23712e-09 -3.73897e-09 -4.22247e-09 -4.67263e-09 -5.08894e-09 -5.47067e-09 -5.82164e-09 -6.14105e-09 -6.43471e-09 -6.70146e-09 -6.94801e-09 -7.17211e-09 -7.38047e-09 -7.57034e-09 -7.74795e-09 -7.91047e-09 -8.06338e-09 -8.20409e-09 -8.33721e-09 -8.46057e-09 -8.57787e-09 -8.6875e-09 -8.7922e-09 -8.89101e-09 -8.98572e-09 -9.07608e-09 -9.16289e-09 -9.24672e-09 -9.32736e-09 -9.40619e-09 -9.48205e-09 -9.55716e-09 -9.62938e-09 -9.70181e-09 -9.77133e-09 -9.84195e-09 -9.90957e-09 -9.97913e-09 -1.00455e-08 -1.01147e-08 -1.01805e-08 -1.02499e-08 -1.03157e-08 -1.03858e-08 -1.04523e-08 -1.05238e-08 -1.05915e-08 -1.06649e-08 -1.07345e-08 -1.08105e-08 -1.08827e-08 -1.09621e-08 -1.10376e-08 -1.11211e-08 -1.12008e-08 -1.12891e-08 -1.13739e-08 -1.14678e-08 -1.15584e-08 -1.16582e-08 -1.17553e-08 -1.18612e-08 -1.19647e-08 -1.2076e-08 -1.21854e-08 -1.22999e-08 -1.24134e-08 -1.2527e-08 -1.26412e-08 -1.27474e-08 -1.28579e-08 -1.29474e-08 -1.30463e-08 -1.31058e-08 -1.31801e-08 -1.31903e-08 -1.31283e-08 -4.02408e-09 -4.89082e-09 -5.86285e-09 -6.65033e-09 -7.36668e-09 -7.90889e-09 -8.37276e-09 -8.7606e-09 -9.08314e-09 -9.36503e-09 -9.59334e-09 -9.80003e-09 -9.96278e-09 -1.01133e-08 -1.02276e-08 -1.03355e-08 -1.04132e-08 -1.04882e-08 -1.0538e-08 -1.05875e-08 -1.06154e-08 -1.06449e-08 -1.0656e-08 -1.06696e-08 -1.06674e-08 -1.06686e-08 -1.0656e-08 -1.06473e-08 -1.06268e-08 -1.06103e-08 -1.05838e-08 -1.05613e-08 -1.05305e-08 -1.05037e-08 -1.047e-08 -1.04402e-08 -1.0405e-08 -1.03736e-08 -1.03382e-08 -1.03063e-08 -1.02719e-08 -1.02409e-08 -1.02088e-08 -1.01798e-08 -1.01513e-08 -1.01258e-08 -1.01022e-08 -1.00816e-08 -1.00645e-08 -1.00504e-08 -1.00415e-08 -1.00358e-08 -1.00371e-08 -1.00418e-08 -1.00556e-08 -1.00733e-08 -1.01022e-08 -1.01357e-08 -1.01829e-08 -1.02358e-08 -1.0305e-08 -1.03814e-08 -1.04771e-08 -1.0582e-08 -1.07098e-08 -1.08493e-08 -1.10158e-08 -1.11976e-08 -1.1411e-08 -1.16447e-08 -1.19157e-08 -1.22134e-08 -1.25557e-08 -1.29308e-08 -1.33597e-08 -1.38187e-08 -1.43443e-08 -1.48493e-08 -1.54333e-08 -1.57767e-08 -1.3943e-08 -1.42967e-08 -1.10975e-08 -1.39832e-08 -1.35374e-08 -1.37462e-08 -1.06046e-08 -1.33818e-08 -1.32172e-08 -1.31092e-08 -1.05125e-08 -1.28292e-08 -1.2914e-08 -1.26156e-08 -1.057e-08 -1.24095e-08 -1.26331e-08 -1.22484e-08 -1.0666e-08 -1.20979e-08 -1.23771e-08 -1.19774e-08 -1.07584e-08 -1.18647e-08 -1.21457e-08 -1.17717e-08 -1.0832e-08 -1.16833e-08 -1.19363e-08 -1.16077e-08 -1.08823e-08 -1.15344e-08 -1.17455e-08 -1.14695e-08 -1.09095e-08 -1.14053e-08 -1.15699e-08 -1.13465e-08 -1.09151e-08 -1.12875e-08 -1.14064e-08 -1.1232e-08 -1.09015e-08 -1.11759e-08 -1.12525e-08 -1.11219e-08 -1.08713e-08 -1.10671e-08 -1.11061e-08 -1.10136e-08 -1.0827e-08 -1.09591e-08 -1.09655e-08 -1.09056e-08 -1.07708e-08 -1.0851e-08 -1.08292e-08 -1.0797e-08 -1.07048e-08 -1.07422e-08 -1.06961e-08 -1.06877e-08 -1.06312e-08 -1.06324e-08 -1.05653e-08 -1.05775e-08 -1.05516e-08 -1.05219e-08 -1.04362e-08 -1.04666e-08 -1.04678e-08 -1.04109e-08 -1.03081e-08 -1.03553e-08 -1.03814e-08 -1.02995e-08 -1.01804e-08 -1.02439e-08 -1.0294e-08 -1.01883e-08 -1.00526e-08 -1.01329e-08 -1.02071e-08 -1.00777e-08 -9.92419e-09 -1.00226e-08 -1.01223e-08 -9.96798e-09 -9.7946e-09 -9.91355e-09 -1.00413e-08 -9.85972e-09 -9.66309e-09 -9.80611e-09 -9.96562e-09 -9.7533e-09 -9.52879e-09 -9.70072e-09 -9.89727e-09 -9.64915e-09 -9.39062e-09 -9.59779e-09 -9.83825e-09 -9.54764e-09 -9.2472e-09 -9.49769e-09 -9.79086e-09 -9.44915e-09 -9.09679e-09 -9.40076e-09 -9.7577e-09 -9.35397e-09 -8.93718e-09 -9.30727e-09 -9.74176e-09 -9.26236e-09 -8.76561e-09 -9.21745e-09 -9.74652e-09 -9.1745e-09 -8.5786e-09 -9.13143e-09 -9.77606e-09 -9.09049e-09 -8.37183e-09 -9.04927e-09 -9.83514e-09 -9.01036e-09 -8.13992e-09 -8.97093e-09 -9.92939e-09 -8.93404e-09 -7.87621e-09 -8.89634e-09 -1.00653e-08 -8.8615e-09 -7.57251e-09 -8.82545e-09 -1.02504e-08 -8.79295e-09 -7.21866e-09 -8.75866e-09 -1.04927e-08 -8.72938e-09 -6.80178e-09 -8.69734e-09 -1.07999e-08 -8.67316e-09 -6.30404e-09 -8.64438e-09 -1.11788e-08 -8.6264e-09 -5.69844e-09 -8.60034e-09 -1.16374e-08 -8.57977e-09 -4.93723e-09 -8.54289e-09 -1.22055e-08 -8.42103e-09 -7.76163e-09 -1.35456e-08 -2.95369e-09 1.22701e-09 1.68539e-09 2.15532e-09 2.66047e-09 3.10227e-09 3.29263e-09 3.50955e-09 3.61431e-09 3.78217e-09 3.86334e-09 4.01936e-09 4.10265e-09 4.26164e-09 4.35829e-09 4.52484e-09 4.63798e-09 4.81223e-09 4.94241e-09 5.1232e-09 5.2697e-09 5.4554e-09 5.61708e-09 5.80601e-09 5.9816e-09 6.17218e-09 6.36039e-09 6.55116e-09 6.75076e-09 6.94038e-09 7.15015e-09 7.33736e-09 7.55609e-09 7.73968e-09 7.96614e-09 8.14492e-09 8.3778e-09 8.55051e-09 8.78839e-09 8.95371e-09 9.19496e-09 9.35138e-09 9.59409e-09 9.73988e-09 9.98176e-09 1.01148e-08 1.03531e-08 1.04708e-08 1.07018e-08 1.08011e-08 1.10203e-08 1.10969e-08 1.12984e-08 1.13471e-08 1.15232e-08 1.1537e-08 1.16775e-08 1.16473e-08 1.17387e-08 1.16521e-08 1.16765e-08 1.15174e-08 1.14506e-08 1.1197e-08 1.10067e-08 1.06291e-08 1.02715e-08 9.72972e-09 9.14574e-09 8.385e-09 7.49554e-09 6.4426e-09 5.13942e-09 3.69074e-09 1.85528e-09 -9.87782e-11 -2.66283e-09 -5.39256e-09 -8.9215e-09 1.88222e-09 3.80975e-09 8.95887e-09 9.27347e-09 8.11515e-09 7.35853e-09 6.75477e-09 6.25584e-09 5.9687e-09 5.73757e-09 5.60324e-09 5.50178e-09 5.4579e-09 5.43356e-09 5.44144e-09 5.46178e-09 5.50211e-09 5.55097e-09 5.613e-09 5.68142e-09 5.75903e-09 5.8419e-09 5.93136e-09 6.02549e-09 6.12435e-09 6.22761e-09 6.33414e-09 6.44499e-09 6.55785e-09 6.67509e-09 6.7932e-09 6.91581e-09 7.03825e-09 7.16534e-09 7.29128e-09 7.42204e-09 7.55069e-09 7.68435e-09 7.81496e-09 7.95078e-09 8.0826e-09 8.21983e-09 8.3521e-09 8.48996e-09 8.6219e-09 8.75958e-09 8.89035e-09 9.027e-09 9.1557e-09 9.29037e-09 9.41599e-09 9.54762e-09 9.66903e-09 9.7964e-09 9.91227e-09 1.0034e-08 1.01427e-08 1.02571e-08 1.03568e-08 1.04618e-08 1.05502e-08 1.06432e-08 1.07174e-08 1.07953e-08 1.08517e-08 1.09105e-08 1.09445e-08 1.09793e-08 1.09851e-08 1.09895e-08 1.09599e-08 1.09262e-08 1.08524e-08 1.07712e-08 1.06437e-08 1.05052e-08 1.03171e-08 1.01146e-08 9.87505e-09 9.62026e-09 9.39024e-09 9.15269e-09 9.20615e-09 -1.04866e-08 -7.60429e-09 -1.52183e-10 -4.34832e-09 -3.8972e-09 -1.88207e-09 3.62111e-09 6.64401e-10 9.35462e-10 2.59197e-09 5.99357e-09 4.26985e-09 4.42077e-09 5.55847e-09 7.75468e-09 6.71635e-09 6.88878e-09 7.62239e-09 9.00641e-09 8.41857e-09 8.6213e-09 9.04909e-09 9.87531e-09 9.58775e-09 9.81211e-09 1.00192e-08 1.04546e-08 1.03694e-08 1.06027e-08 1.06532e-08 1.08153e-08 1.0864e-08 1.10955e-08 1.10373e-08 1.10105e-08 1.11443e-08 1.13658e-08 1.12343e-08 1.10802e-08 1.12637e-08 1.14691e-08 1.12904e-08 1.1054e-08 1.12616e-08 1.14466e-08 1.124e-08 1.09545e-08 1.11676e-08 1.1329e-08 1.11088e-08 1.07988e-08 1.10036e-08 1.11394e-08 1.09163e-08 1.06e-08 1.07865e-08 1.08951e-08 1.0677e-08 1.03678e-08 1.0529e-08 1.06094e-08 1.04021e-08 1.01102e-08 1.02407e-08 1.02925e-08 1.01004e-08 9.83323e-09 9.92932e-09 9.95214e-09 9.77863e-09 9.54167e-09 9.60078e-09 9.59462e-09 9.44206e-09 9.23947e-09 9.25984e-09 9.22487e-09 9.09505e-09 8.92987e-09 8.91039e-09 8.84691e-09 8.74116e-09 8.61562e-09 8.55567e-09 8.46413e-09 8.3834e-09 8.29911e-09 8.19847e-09 8.07944e-09 8.0244e-09 7.98247e-09 7.84127e-09 7.69544e-09 7.66652e-09 7.66766e-09 7.48631e-09 7.31452e-09 7.31196e-09 7.35657e-09 7.13575e-09 6.939e-09 6.96286e-09 7.05101e-09 6.7917e-09 6.57116e-09 6.62132e-09 6.75285e-09 6.4563e-09 6.21336e-09 6.28956e-09 6.46402e-09 6.13179e-09 5.86805e-09 5.96987e-09 6.18663e-09 5.82056e-09 5.53785e-09 5.66476e-09 5.923e-09 5.5252e-09 5.22554e-09 5.37695e-09 5.67583e-09 5.24855e-09 4.93397e-09 5.1094e-09 5.44833e-09 4.99369e-09 4.66575e-09 4.86533e-09 5.24462e-09 4.76394e-09 4.4227e-09 4.64821e-09 5.07024e-09 4.56299e-09 4.20422e-09 4.46206e-09 4.93348e-09 4.3951e-09 4.00405e-09 4.3122e-09 4.84811e-09 4.26753e-09 3.80362e-09 4.20979e-09 4.8401e-09 4.19951e-09 3.54498e-09 4.18949e-09 4.95529e-09 4.20791e-09 3.17342e-09 4.27384e-09 5.33126e-09 4.63796e-09 1.98927e-09 5.12166e-09 6.029e-09 4.20507e-09 -6.58256e-09 6.88804e-09 4.1676e-09 1.09879e-08 4.93541e-09 1.12805e-08 5.51961e-09 1.17893e-08 6.1215e-09 1.24314e-08 6.90558e-09 1.30344e-08 7.69254e-09 1.34392e-08 8.45019e-09 1.36116e-08 9.21479e-09 1.35759e-08 1.00389e-08 1.33822e-08 1.09415e-08 1.30493e-08 1.18433e-08 1.25091e-08 1.24915e-08 1.15992e-08 1.2434e-08 1.02114e-08 1.12397e-08 8.51056e-09 8.90275e-09 6.8264e-09 5.93769e-09 5.24524e-09 3.02591e-09 3.62695e-09 8.41183e-10 2.0601e-09 -1.28055e-10 8.63318e-10 7.39683e-11 1.75222e-10 9.83583e-10 -1.40381e-10 2.12774e-09 -2.68676e-10 3.23943e-09 -2.95393e-10 4.22681e-09 -2.17949e-10 5.08885e-09 -1.16288e-11 5.83202e-09 2.89966e-10 6.3932e-09 5.22435e-10 6.5353e-09 2.57989e-10 5.66828e-09 -1.33208e-09 2.83943e-09 -5.39006e-09 -2.99884e-09 -1.35432e-08 -4.65095e-09 -4.35956e-09 -4.39002e-09 -3.2488e-09 -2.56363e-09 -1.20141e-09 -3.86086e-10 5.01585e-10 1.06131e-09 1.20132e-09 1.46718e-09 9.53326e-10 1.08143e-09 1.30357e-10 3.25529e-10 -8.84492e-10 -4.27132e-10 -1.81492e-09 -9.22767e-10 -2.50615e-09 -1.03438e-09 -2.89562e-09 -7.44342e-10 -2.93231e-09 -9.60934e-11 -2.41901e-09 9.18662e-10 -9.11267e-10 2.47136e-09 2.01275e-09 4.72533e-09 6.10378e-09 7.36585e-09 1.02285e-08 9.70641e-09 1.32525e-08 1.14215e-08 1.49192e-08 1.26492e-08 1.56328e-08 1.35298e-08 1.58127e-08 1.40436e-08 1.56295e-08 1.41179e-08 1.50997e-08 1.37233e-08 1.42271e-08 1.2908e-08 1.30703e-08 1.1812e-08 1.17739e-08 1.06789e-08 1.05864e-08 9.83699e-09 9.82045e-09 9.5801e-09 9.67861e-09 9.89618e-09 9.94743e-09 1.02783e-08 9.99062e-09 9.98483e-09 2.36176e-11 6.44193e-09 5.21457e-09 3.06747e-09 2.13797e-09 3.8943e-09 -1.58167e-09 1.32043e-09 3.02486e-09 1.47145e-09 -2.92413e-09 -3.19448e-10 2.86111e-09 1.86667e-10 -2.05809e-09 -1.14556e-09 2.86424e-09 -4.26628e-10 -8.0157e-10 -1.32982e-09 3.16611e-09 -4.1874e-10 7.24461e-11 -1.00705e-09 3.72226e-09 -1.3018e-11 4.64147e-10 -3.76768e-10 4.44781e-09 6.38977e-10 5.54673e-10 4.57787e-10 5.31183e-09 1.49065e-09 5.82998e-10 1.48072e-09 6.32281e-09 2.55155e-09 7.31004e-10 2.69652e-09 7.47107e-09 3.81257e-09 1.0821e-09 4.06014e-09 8.66111e-09 5.1872e-09 1.61802e-09 5.42496e-09 9.65463e-09 6.47636e-09 2.25052e-09 6.52308e-09 1.00672e-08 7.37063e-09 2.90759e-09 7.05335e-09 9.53663e-09 7.56995e-09 3.65821e-09 6.92234e-09 8.03743e-09 7.02184e-09 4.69735e-09 6.37024e-09 5.98583e-09 6.03156e-09 6.06717e-09 5.72805e-09 3.9863e-09 5.09135e-09 7.4791e-09 5.26532e-09 2.63452e-09 4.68402e-09 8.63942e-09 5.30208e-09 2.31996e-09 5.08839e-09 9.5736e-09 6.05181e-09 2.9811e-09 6.21806e-09 1.04505e-08 7.38759e-09 4.22432e-09 7.7431e-09 1.13104e-08 8.97956e-09 5.64206e-09 9.33015e-09 1.20525e-08 1.05362e-08 6.97608e-09 1.07569e-08 1.25507e-08 1.18863e-08 8.10813e-09 1.19084e-08 1.27254e-08 1.29542e-08 8.99649e-09 1.27379e-08 1.25641e-08 1.37035e-08 9.59767e-09 1.32049e-08 1.21203e-08 1.40593e-08 9.78416e-09 1.31891e-08 1.14972e-08 1.38205e-08 9.27992e-09 1.24096e-08 1.07842e-08 1.26143e-08 7.64275e-09 1.04252e-08 9.92017e-09 9.95234e-09 4.28668e-09 6.73671e-09 8.51663e-09 5.38783e-09 -1.57921e-09 9.34421e-10 5.73037e-09 -1.53452e-09 -2.14195e-08 -2.21668e-08 -1.72337e-08 -1.65193e-08 -1.9263e-08 -1.81189e-08 -1.68031e-08 -1.57493e-08 -1.5077e-08 -1.44582e-08 -1.39284e-08 -1.34436e-08 -1.30235e-08 -1.26418e-08 -1.23063e-08 -1.20045e-08 -1.17383e-08 -1.15017e-08 -1.12925e-08 -1.11092e-08 -1.09471e-08 -1.08075e-08 -1.06842e-08 -1.05807e-08 -1.04894e-08 -1.04153e-08 -1.03505e-08 -1.03007e-08 -1.02577e-08 -1.02277e-08 -1.02027e-08 -1.01887e-08 -1.01785e-08 -1.01775e-08 -1.01792e-08 -1.01885e-08 -1.01999e-08 -1.02172e-08 -1.02361e-08 -1.02595e-08 -1.02841e-08 -1.03117e-08 -1.03404e-08 -1.03706e-08 -1.04018e-08 -1.04331e-08 -1.04652e-08 -1.04961e-08 -1.05277e-08 -1.05567e-08 -1.05863e-08 -1.06117e-08 -1.06376e-08 -1.06578e-08 -1.06781e-08 -1.06913e-08 -1.07038e-08 -1.07076e-08 -1.07099e-08 -1.07017e-08 -1.06905e-08 -1.06668e-08 -1.0638e-08 -1.05944e-08 -1.05426e-08 -1.04733e-08 -1.03908e-08 -1.02874e-08 -1.0163e-08 -1.00134e-08 -9.82995e-09 -9.61503e-09 -9.34517e-09 -9.03427e-09 -8.63175e-09 -8.17202e-09 -7.55468e-09 -6.8519e-09 -5.90501e-09 -4.86555e-09 -3.49076e-09 -2.44681e-09 -3.40233e-09 -1.61687e-08 -1.4926e-08 -1.37963e-08 -1.29017e-08 -1.21987e-08 -1.16456e-08 -1.12118e-08 -1.08745e-08 -1.06163e-08 -1.0423e-08 -1.02834e-08 -1.01881e-08 -1.01292e-08 -1.01002e-08 -1.00956e-08 -1.01107e-08 -1.01415e-08 -1.01843e-08 -1.02359e-08 -1.02936e-08 -1.03545e-08 -1.04159e-08 -1.04753e-08 -1.05299e-08 -1.05768e-08 -1.06126e-08 -1.06336e-08 -1.06351e-08 -1.06118e-08 -1.05566e-08 -1.04601e-08 -1.03101e-08 -1.00891e-08 -9.77205e-09 -9.32132e-09 -8.67832e-09 -7.74167e-09 -6.25714e-09 -3.34689e-09 -1.7337e-08 -1.7086e-08 -1.61612e-08 -1.5346e-08 -1.46715e-08 -1.40748e-08 -1.35702e-08 -1.31121e-08 -1.27217e-08 -1.2365e-08 -1.20577e-08 -1.17783e-08 -1.1536e-08 -1.1318e-08 -1.1128e-08 -1.09598e-08 -1.08127e-08 -1.06852e-08 -1.05734e-08 -1.04793e-08 -1.03967e-08 -1.03299e-08 -1.02715e-08 -1.02272e-08 -1.01888e-08 -1.01628e-08 -1.01409e-08 -1.01299e-08 -1.01216e-08 -1.01226e-08 -1.01254e-08 -1.0136e-08 -1.01477e-08 -1.01657e-08 -1.01845e-08 -1.02081e-08 -1.02322e-08 -1.02597e-08 -1.02877e-08 -1.03175e-08 -1.03479e-08 -1.03787e-08 -1.04101e-08 -1.04405e-08 -1.04716e-08 -1.05001e-08 -1.05293e-08 -1.05546e-08 -1.05805e-08 -1.06009e-08 -1.06217e-08 -1.06355e-08 -1.06492e-08 -1.06545e-08 -1.06587e-08 -1.06529e-08 -1.06447e-08 -1.06248e-08 -1.06004e-08 -1.05626e-08 -1.0517e-08 -1.0456e-08 -1.03824e-08 -1.0291e-08 -1.01797e-08 -1.00476e-08 -9.88395e-09 -9.69551e-09 -9.45712e-09 -9.18774e-09 -8.83933e-09 -8.45034e-09 -7.93143e-09 -7.35978e-09 -6.56034e-09 -5.68378e-09 -4.02833e-09 -1.97145e-09 8.03013e-10 -1.77309e-08 -1.57132e-08 -1.43581e-08 -1.33507e-08 -1.25646e-08 -1.19447e-08 -1.14566e-08 -1.10758e-08 -1.07828e-08 -1.0562e-08 -1.04006e-08 -1.02881e-08 -1.02159e-08 -1.01766e-08 -1.01641e-08 -1.01732e-08 -1.01994e-08 -1.02387e-08 -1.02877e-08 -1.03432e-08 -1.04022e-08 -1.04617e-08 -1.05189e-08 -1.05707e-08 -1.06139e-08 -1.06448e-08 -1.06592e-08 -1.0652e-08 -1.06168e-08 -1.05454e-08 -1.04267e-08 -1.02452e-08 -9.97852e-09 -9.59197e-09 -9.03032e-09 -8.20183e-09 -6.95221e-09 -5.02681e-09 -2.25645e-09 2.09999e-08 5.32018e-09 5.04572e-09 5.03616e-09 5.05416e-09 5.14346e-09 5.23693e-09 5.33509e-09 5.4327e-09 5.52452e-09 5.6146e-09 5.69852e-09 5.78113e-09 5.85993e-09 5.93813e-09 6.0146e-09 6.09116e-09 6.1675e-09 6.24446e-09 6.32217e-09 6.40089e-09 6.48095e-09 6.56226e-09 6.64521e-09 6.72957e-09 6.81566e-09 6.90324e-09 6.99252e-09 7.08329e-09 7.17565e-09 7.26947e-09 7.36469e-09 7.46134e-09 7.55916e-09 7.65835e-09 7.75848e-09 7.85991e-09 7.96205e-09 8.06543e-09 8.16931e-09 8.27437e-09 8.37976e-09 8.48631e-09 8.59307e-09 8.70098e-09 8.80909e-09 8.91838e-09 9.02798e-09 9.13884e-09 9.25028e-09 9.36315e-09 9.47709e-09 9.59272e-09 9.71022e-09 9.82981e-09 9.95245e-09 1.00778e-08 1.02079e-08 1.03414e-08 1.04822e-08 1.06275e-08 1.07835e-08 1.09456e-08 1.11229e-08 1.13084e-08 1.15155e-08 1.17335e-08 1.19819e-08 1.22449e-08 1.25506e-08 1.28757e-08 1.32611e-08 1.36726e-08 1.41712e-08 1.4705e-08 1.53716e-08 1.60854e-08 1.70216e-08 1.80205e-08 1.94696e-08 1.80138e-08 1.61771e-08 1.1628e-08 5.91981e-09 5.75776e-09 5.64845e-09 5.60176e-09 5.61378e-09 5.67254e-09 5.76789e-09 5.89202e-09 6.03923e-09 6.20537e-09 6.38733e-09 6.58272e-09 6.78958e-09 7.00622e-09 7.23114e-09 7.46297e-09 7.70038e-09 7.94209e-09 8.18686e-09 8.43343e-09 8.68054e-09 8.92692e-09 9.17128e-09 9.41225e-09 9.64843e-09 9.87836e-09 1.01004e-08 1.0313e-08 1.05142e-08 1.07022e-08 1.08747e-08 1.10295e-08 1.11645e-08 1.12777e-08 1.13679e-08 1.14356e-08 1.14847e-08 1.15246e-08 1.15679e-08 5.28075e-09 5.22441e-09 5.25439e-09 5.23683e-09 5.29625e-09 5.33527e-09 5.39586e-09 5.44753e-09 5.50839e-09 5.56663e-09 5.62908e-09 5.69175e-09 5.75779e-09 5.82533e-09 5.89612e-09 5.9689e-09 6.04502e-09 6.1232e-09 6.20479e-09 6.28829e-09 6.37523e-09 6.46384e-09 6.55584e-09 6.64922e-09 6.74591e-09 6.84367e-09 6.94464e-09 7.04633e-09 7.15112e-09 7.25629e-09 7.36443e-09 7.4726e-09 7.5836e-09 7.69428e-09 7.80767e-09 7.92039e-09 8.03568e-09 8.14995e-09 8.26668e-09 8.38206e-09 8.49978e-09 8.61582e-09 8.73412e-09 8.85043e-09 8.96895e-09 9.08519e-09 9.20362e-09 9.31951e-09 9.43764e-09 9.553e-09 9.67073e-09 9.78552e-09 9.90291e-09 1.00172e-08 1.01346e-08 1.02488e-08 1.03666e-08 1.04815e-08 1.06007e-08 1.07172e-08 1.08394e-08 1.09593e-08 1.10864e-08 1.12121e-08 1.13474e-08 1.14822e-08 1.16299e-08 1.17788e-08 1.19451e-08 1.21146e-08 1.23088e-08 1.25087e-08 1.27463e-08 1.29923e-08 1.33045e-08 1.36271e-08 1.40862e-08 1.45549e-08 1.5362e-08 4.49383e-09 4.88386e-09 5.16892e-09 5.39079e-09 5.57678e-09 5.74304e-09 5.90022e-09 6.05513e-09 6.21208e-09 6.37369e-09 6.54144e-09 6.71603e-09 6.89764e-09 7.08608e-09 7.28093e-09 7.48162e-09 7.6875e-09 7.89787e-09 8.11205e-09 8.32937e-09 8.54929e-09 8.7714e-09 8.99549e-09 9.22161e-09 9.45024e-09 9.68233e-09 9.91953e-09 1.01644e-08 1.04208e-08 1.0694e-08 1.09915e-08 1.13237e-08 1.17044e-08 1.2152e-08 1.2691e-08 1.33525e-08 1.41753e-08 1.52042e-08 1.64798e-08 -2.19918e-08 -2.79805e-08 -3.05275e-08 -3.25767e-08 -3.47716e-08 -3.71047e-08 -3.9566e-08 -4.23962e-08 -4.47708e-08 -4.76208e-08 -4.93866e-08 -5.1677e-08 -5.24496e-08 -5.3767e-08 -5.33928e-08 -5.35809e-08 -5.21109e-08 -5.12462e-08 -4.88526e-08 -4.71542e-08 -4.4031e-08 -4.17461e-08 -3.80136e-08 -3.52909e-08 -3.09159e-08 -2.76914e-08 -2.24958e-08 -1.84447e-08 -1.23228e-08 -7.05967e-09 -3.5937e-10 6.03356e-09 1.24244e-08 1.91486e-08 2.44306e-08 3.05949e-08 3.46802e-08 3.99279e-08 4.31899e-08 4.76129e-08 5.03586e-08 5.41173e-08 5.63887e-08 5.94952e-08 6.11165e-08 6.34233e-08 6.41097e-08 6.53847e-08 6.48626e-08 6.48808e-08 6.30018e-08 6.16462e-08 5.849e-08 5.58485e-08 5.17801e-08 4.82053e-08 4.38394e-08 3.99179e-08 3.59475e-08 3.23302e-08 2.92245e-08 2.63164e-08 2.36935e-08 1.0804e-08 1.25804e-08 1.56546e-08 1.91727e-08 2.24838e-08 2.51698e-08 2.70088e-08 2.79235e-08 2.7944e-08 2.71816e-08 2.57774e-08 2.3813e-08 2.11736e-08 1.74789e-08 1.23552e-08 6.07899e-09 -1.64947e-10 -5.19497e-09 -8.74638e-09 -1.12156e-08 -1.30123e-08 -1.42844e-08 -1.49914e-08 -1.50506e-08 -1.44289e-08 -1.31776e-08 -1.14207e-08 -9.34554e-09 -7.24295e-09 -5.65763e-09 -5.80664e-09 1.70594e-08 1.86064e-08 1.9713e-08 2.15189e-08 2.31564e-08 2.5544e-08 2.73587e-08 3.00274e-08 3.16341e-08 3.41976e-08 3.53161e-08 3.74365e-08 3.79308e-08 3.93842e-08 3.92412e-08 3.99287e-08 3.92185e-08 3.91458e-08 3.799e-08 3.72377e-08 3.57656e-08 3.44389e-08 3.27306e-08 3.09065e-08 2.89142e-08 2.6583e-08 2.40839e-08 2.11296e-08 1.78618e-08 1.41881e-08 1.0208e-08 6.04499e-09 1.92722e-09 -2.06623e-09 -5.67121e-09 -8.91685e-09 -1.17902e-08 -1.42365e-08 -1.64876e-08 -1.84108e-08 -2.01695e-08 -2.18123e-08 -2.31031e-08 -2.45355e-08 -2.53004e-08 -2.64691e-08 -2.66291e-08 -2.74399e-08 -2.6949e-08 -2.73215e-08 -2.62092e-08 -2.61103e-08 -2.44926e-08 -2.39468e-08 -2.20242e-08 -2.11346e-08 -1.91735e-08 -1.81474e-08 -1.64424e-08 -1.56104e-08 -1.447e-08 -1.43958e-08 -1.32469e-08 2.07743e-08 2.5222e-08 3.12458e-08 3.79872e-08 4.43162e-08 4.92511e-08 5.21953e-08 5.29864e-08 5.18013e-08 4.90049e-08 4.49827e-08 3.99705e-08 3.38961e-08 2.63481e-08 1.6932e-08 6.04547e-09 -4.81577e-09 -1.41602e-08 -2.16051e-08 -2.75713e-08 -3.25046e-08 -3.65183e-08 -3.94281e-08 -4.09196e-08 -4.07262e-08 -3.87938e-08 -3.5404e-08 -3.12036e-08 -2.70373e-08 -2.35072e-08 -2.00635e-08 1.65763e-08 3.33105e-08 4.00101e-08 4.54524e-08 4.96026e-08 5.24951e-08 5.49189e-08 5.58678e-08 5.68969e-08 5.63848e-08 5.61155e-08 5.44398e-08 5.30333e-08 5.04646e-08 4.81148e-08 4.49115e-08 4.18498e-08 3.82645e-08 3.4753e-08 3.10208e-08 2.73386e-08 2.36597e-08 2.00725e-08 1.65918e-08 1.33266e-08 1.01442e-08 7.36348e-09 4.55672e-09 2.28961e-09 -9.02599e-11 -2.0236e-09 -4.04018e-09 -5.96964e-09 -7.87531e-09 -1.0068e-08 -1.21949e-08 -1.4739e-08 -1.72843e-08 -2.01534e-08 -2.31108e-08 -2.62451e-08 -2.94717e-08 -3.27794e-08 -3.60596e-08 -3.93953e-08 -4.24664e-08 -4.56227e-08 -4.82025e-08 -5.09325e-08 -5.27519e-08 -5.47901e-08 -5.56093e-08 -5.66868e-08 -5.63051e-08 -5.61607e-08 -5.44328e-08 -5.28477e-08 -4.97645e-08 -4.66709e-08 -4.24647e-08 -3.80323e-08 -3.31107e-08 -2.73929e-08 1.59905e-08 1.92794e-08 1.88085e-08 1.60972e-08 1.24839e-08 8.82411e-09 5.55799e-09 2.83596e-09 6.42107e-10 -1.09989e-09 -2.46468e-09 -3.50859e-09 -4.24986e-09 -4.64427e-09 -4.60805e-09 -4.17288e-09 -3.61461e-09 -3.23531e-09 -3.13007e-09 -3.28397e-09 -3.70363e-09 -4.43318e-09 -5.53174e-09 -7.06109e-09 -9.08473e-09 -1.16331e-08 -1.46325e-08 -1.78268e-08 -2.07068e-08 -2.24251e-08 -2.16862e-08 1.36595e-08 2.24956e-08 2.6536e-08 2.88844e-08 3.00818e-08 3.0041e-08 2.99825e-08 2.87357e-08 2.8186e-08 2.63742e-08 2.55452e-08 2.34428e-08 2.23941e-08 2.01714e-08 1.89485e-08 1.6716e-08 1.53825e-08 1.31954e-08 1.18326e-08 9.70507e-09 8.40824e-09 6.33669e-09 5.20445e-09 3.19145e-09 2.31716e-09 4.13253e-10 -1.42971e-10 -1.78949e-09 -2.07719e-09 -3.24235e-09 -3.50428e-09 -4.06277e-09 -4.64744e-09 -4.7702e-09 -5.85114e-09 -5.90331e-09 -7.37457e-09 -7.62745e-09 -9.29182e-09 -9.82316e-09 -1.15568e-08 -1.23265e-08 -1.40941e-08 -1.50189e-08 -1.6822e-08 -1.78043e-08 -1.96404e-08 -2.05775e-08 -2.24218e-08 -2.32191e-08 -2.50083e-08 -2.5586e-08 -2.72094e-08 -2.75112e-08 -2.8818e-08 -2.88083e-08 -2.96204e-08 -2.92398e-08 -2.92986e-08 -2.83252e-08 -2.71472e-08 -2.49648e-08 -2.18005e-08 2.91912e-08 3.93005e-08 4.21919e-08 4.22316e-08 4.06984e-08 3.79834e-08 3.42926e-08 2.98532e-08 2.49161e-08 1.97344e-08 1.45498e-08 9.59104e-09 5.08481e-09 1.26655e-09 -1.71943e-09 -4.04232e-09 -6.25136e-09 -8.91403e-09 -1.22445e-08 -1.61498e-08 -2.04354e-08 -2.48976e-08 -2.93119e-08 -3.34253e-08 -3.69628e-08 -3.9647e-08 -4.12316e-08 -4.15466e-08 -4.04825e-08 -3.77501e-08 -3.23482e-08 
</DataArray>
<DataArray Name="Warping_Y" format="ascii" type="Float64">