<?xml version="1.0"?>
<VTKFile byte_order="LittleEndian" type="UnstructuredGrid" version="0.1">
<UnstructuredGrid>
<Piece NumberOfCells="576" NumberOfPoints="2016">
<PointData>
<DataArray Name="Warping_X" format="ascii" type="Float64">
-3.04249e-09 -4.2737e-09 -3.28361e-09 -3.52719e-09 -3.76054e-09 -3.98558e-09 -4.26641e-09 -4.5272e-09 -4.87615e-09 -5.20781e-09 -5.65144e-09 -6.09146e-09 -6.65058e-09 -7.2199e-09 -7.90976e-09 -8.61355e-09 -9.44411e-09 -1.02769e-08 -1.12546e-08 -1.22037e-08 -1.33332e-08 -1.43748e-08 -1.56595e-08 -1.67442e-08 -1.81865e-08 -1.9206e-08 -2.08094e-08 -2.15513e-08 -2.332e-08 -2.34766e-08 -2.53853e-08 -2.47427e-08 -2.66502e-08 -2.53142e-08 -2.69021e-08 -2.52216e-08 -2.61221e-08 -2.44106e-08 -2.44902e-08 -2.2891e-08 -2.23453e-08 -2.0885e-08 -2.00193e-08 -1.86939e-08 -1.77252e-08 -1.65311e-08 -1.55716e-08 -1.45064e-08 -1.36068e-08 -1.26665e-08 -1.18488e-08 -1.10272e-08 -1.03002e-08 -9.58835e-09 -8.95418e-09 -8.34024e-09 -7.79367e-09 -7.26402e-09 -6.79103e-09 -6.33271e-09 -5.90525e-09 -5.50345e-09 -5.10435e-09 -4.76035e-09 -4.41432e-09 -6.43062e-09 -4.10945e-09 -4.86899e-09 -4.94338e-09 -3.27698e-09 -3.73115e-09 -4.13866e-09 -4.35311e-09 -4.55262e-09 -4.82059e-09 -5.09293e-09 -5.49521e-09 -5.92409e-09 -6.46562e-09 -7.06061e-09 -7.71315e-09 -8.4542e-09 -9.18126e-09 -1.00439e-08 -1.08146e-08 -1.17846e-08 -1.25762e-08 -1.3654e-08 -1.44446e-08 -1.56421e-08 -1.63983e-08 -1.77334e-08 -1.83966e-08 -1.98847e-08 -2.03579e-08 -2.19968e-08 -2.21452e-08 -2.38878e-08 -2.35764e-08 -2.52971e-08 -2.44708e-08 -2.5971e-08 -2.4711e-08 -2.57902e-08 -2.42798e-08 -2.48343e-08 -2.32674e-08 -2.3336e-08 -2.18417e-08 -2.15537e-08 -2.01855e-08 -1.96779e-08 -1.84437e-08 -1.78188e-08 -1.67079e-08 -1.60305e-08 -1.50284e-08 -1.43375e-08 -1.34349e-08 -1.27569e-08 -1.19555e-08 -1.13168e-08 -1.0632e-08 -1.00666e-08 -9.52304e-09 -9.06743e-09 -8.68279e-09 -8.35819e-09 -8.11799e-09 -7.90479e-09 -7.71865e-09 -7.51252e-09 -7.02263e-09 -3.14648e-09 -3.20018e-09 -3.25665e-09 -3.49035e-09 -3.65236e-09 -3.79415e-09 -3.82734e-09 -4.09441e-09 -4.18338e-09 -4.40394e-09 -4.41473e-09 -4.74996e-09 -4.78828e-09 -5.11988e-09 -5.07206e-09 -5.52621e-09 -5.53291e-09 -5.96026e-09 -5.91458e-09 -6.45479e-09 -6.46905e-09 -6.96811e-09 -6.98095e-09 -7.5691e-09 -7.6327e-09 -8.1727e-09 -8.26976e-09 -8.88835e-09 -9.03992e-09 -9.5885e-09 -9.76346e-09 -1.04199e-08 -1.06912e-08 -1.12185e-08 -1.14436e-08 -1.2162e-08 -1.25775e-08 -1.30562e-08 -1.32956e-08 -1.4104e-08 -1.4679e-08 -1.5085e-08 -1.5305e-08 -1.6222e-08 -1.69548e-08 -1.72706e-08 -1.74462e-08 -1.84671e-08 -1.93203e-08 -1.95455e-08 -1.96643e-08 -2.0745e-08 -2.16117e-08 -2.17829e-08 -2.18461e-08 -2.28893e-08 -2.35745e-08 -2.37696e-08 -2.37924e-08 -2.46507e-08 -2.49433e-08 -2.52241e-08 -2.52295e-08 -2.57482e-08 -2.55706e-08 -2.59015e-08 -2.59061e-08 -2.5988e-08 -2.5418e-08 -2.56988e-08 -2.57111e-08 -2.53524e-08 -2.44954e-08 -2.4686e-08 -2.47201e-08 -2.40067e-08 -2.29273e-08 -2.30866e-08 -2.31631e-08 -2.22189e-08 -2.09675e-08 -2.11756e-08 -2.13093e-08 -2.02379e-08 -1.88709e-08 -1.91697e-08 -1.93636e-08 -1.82353e-08 -1.68058e-08 -1.7202e-08 -1.74475e-08 -1.63117e-08 -1.48607e-08 -1.53454e-08 -1.5624e-08 -1.45208e-08 -1.30776e-08 -1.36379e-08 -1.39242e-08 -1.28892e-08 -1.14739e-08 -1.20977e-08 -1.2366e-08 -1.14271e-08 -1.00545e-08 -1.07288e-08 -1.09633e-08 -1.01315e-08 -8.81463e-09 -9.52037e-09 -9.72855e-09 -8.98366e-09 -7.73646e-09 -8.44317e-09 -8.66852e-09 -7.94961e-09 -6.78562e-09 -7.4544e-09 -7.76911e-09 -6.98743e-09 -5.91774e-09 -6.5097e-09 -6.96767e-09 -6.10407e-09 -5.06159e-09 -5.6744e-09 -6.08604e-09 -5.29625e-09 1.86285e-09 -2.96968e-09 -2.9084e-09 -2.83427e-09 -2.76598e-09 -2.6949e-09 -2.62725e-09 -2.5553e-09 -2.48503e-09 -2.41162e-09 -2.33885e-09 -2.26395e-09 -2.18915e-09 -2.11299e-09 -2.03664e-09 -1.95938e-09 -1.8818e-09 -1.80359e-09 -1.725e-09 -1.64595e-09 -1.56651e-09 -1.48673e-09 -1.40658e-09 -1.32618e-09 -1.24544e-09 -1.16451e-09 -1.08327e-09 -1.0019e-09 -9.20267e-10 -8.38548e-10 -7.56592e-10 -6.74595e-10 -5.92393e-10 -5.10186e-10 -4.27803e-10 -3.45448e-10 -2.62943e-10 -1.80496e-10 -9.79248e-11 -1.544e-11 6.71453e-11 1.49616e-10 2.32163e-10 3.14566e-10 3.97021e-10 4.79301e-10 5.61605e-10 6.43701e-10 7.2579e-10 8.07632e-10 8.89431e-10 9.70937e-10 1.05235e-09 1.13343e-09 1.21435e-09 1.29487e-09 1.37516e-09 1.45497e-09 1.53446e-09 1.61336e-09 1.69181e-09 1.76955e-09 1.84666e-09 1.92292e-09 1.99829e-09 2.07268e-09 2.1458e-09 2.2178e-09 2.28803e-09 2.35705e-09 2.4236e-09 2.48882e-09 2.55067e-09 2.60961e-09 2.66425e-09 2.70591e-09 2.74192e-09 2.70633e-09 2.66012e-09 2.29321e-09 2.91519e-09 3.11389e-09 3.29501e-09 3.25317e-09 3.22253e-09 3.13667e-09 3.05715e-09 2.96508e-09 2.87597e-09 2.78403e-09 2.69327e-09 2.60193e-09 2.51114e-09 2.42051e-09 2.33021e-09 2.24034e-09 2.15071e-09 2.0616e-09 1.97269e-09 1.8843e-09 1.79609e-09 1.70837e-09 1.62079e-09 1.53366e-09 1.44663e-09 1.36e-09 1.27344e-09 1.18724e-09 1.10107e-09 1.01521e-09 9.29368e-10 8.43783e-10 7.58189e-10 6.72817e-10 5.8741e-10 5.02192e-10 4.16916e-10 3.31799e-10 2.466e-10 1.61532e-10 7.63589e-11 -8.71085e-12 -9.39085e-11 -1.79031e-10 -2.64306e-10 -3.49534e-10 -4.34942e-10 -5.20334e-10 -6.05938e-10 -6.91562e-10 -7.77433e-10 -8.63365e-10 -9.49588e-10 -1.03592e-09 -1.1226e-09 -1.20944e-09 -1.2967e-09 -1.3842e-09 -1.4722e-09 -1.56054e-09 -1.64948e-09 -1.73889e-09 -1.82903e-09 -1.91984e-09 -2.01154e-09 -2.10419e-09 -2.1979e-09 -2.29302e-09 -2.38941e-09 -2.4879e-09 -2.58781e-09 -2.69085e-09 -2.7952e-09 -2.90354e-09 -3.0123e-09 -3.12235e-09 -3.22948e-09 -3.32652e-09 -3.40606e-09 -3.3576e-09 3.63457e-09 2.53486e-09 4.31894e-09 2.80727e-09 3.13052e-09 3.09674e-09 3.64323e-09 3.09507e-09 2.93018e-09 3.09478e-09 3.30307e-09 3.02011e-09 2.78636e-09 2.94708e-09 3.06356e-09 2.8598e-09 2.64483e-09 2.77416e-09 2.85712e-09 2.68577e-09 2.49837e-09 2.59879e-09 2.66497e-09 2.51155e-09 2.34729e-09 2.42534e-09 2.48039e-09 2.33926e-09 2.19275e-09 2.25389e-09 2.30037e-09 2.1687e-09 2.03561e-09 2.08397e-09 2.12333e-09 1.99938e-09 1.8765e-09 1.91508e-09 1.94837e-09 1.83088e-09 1.71584e-09 1.74685e-09 1.77491e-09 1.66289e-09 1.55394e-09 1.57902e-09 1.60259e-09 1.4952e-09 1.39104e-09 1.41143e-09 1.43114e-09 1.32768e-09 1.22736e-09 1.24395e-09 1.26037e-09 1.16024e-09 1.06302e-09 1.07654e-09 1.09012e-09 9.92836e-10 8.98176e-10 9.09136e-10 9.20277e-10 8.25435e-10 7.32922e-10 7.41729e-10 7.50738e-10 6.58019e-10 5.67352e-10 5.74303e-10 5.81424e-10 4.90581e-10 4.01546e-10 4.06852e-10 4.12264e-10 3.23117e-10 2.35576e-10 2.39376e-10 2.43195e-10 1.5563e-10 6.9507e-11 7.18784e-11 7.41608e-11 -1.18785e-11 -9.65968e-11 -9.56372e-11 -9.48946e-11 -1.79401e-10 -2.62672e-10 -2.63163e-10 -2.64025e-10 -3.46928e-10 -4.28653e-10 -4.30688e-10 -4.33288e-10 -5.1445e-10 -5.94468e-10 -5.982e-10 -6.02741e-10 -6.81949e-10 -7.60039e-10 -7.65679e-10 -7.72453e-10 -8.49405e-10 -9.25276e-10 -9.331e-10 -9.42497e-10 -1.01679e-09 -1.09008e-09 -1.10043e-09 -1.11296e-09 -1.18405e-09 -1.25432e-09 -1.2676e-09 -1.28393e-09 -1.35113e-09 -1.41786e-09 -1.43456e-09 -1.45552e-09 -1.51794e-09 -1.58054e-09 -1.60117e-09 -1.62784e-09 -1.68434e-09 -1.74217e-09 -1.7673e-09 -1.80101e-09 -1.85016e-09 -1.90254e-09 -1.93271e-09 -1.97509e-09 -2.01516e-09 -2.06144e-09 -2.09714e-09 -2.15004e-09 -2.17905e-09 -2.21871e-09 -2.26028e-09 -2.32556e-09 -2.34158e-09 -2.37429e-09 -2.42191e-09 -2.5007e-09 -2.50271e-09 -2.52835e-09 -2.5822e-09 -2.67324e-09 -2.66307e-09 -2.68132e-09 -2.74234e-09 -2.83865e-09 -2.82383e-09 -2.83385e-09 -2.90391e-09 -2.98992e-09 -2.98724e-09 -2.98528e-09 -3.07216e-09 -3.11816e-09 -3.13362e-09 -1.21394e-08 7.93004e-09 -1.21805e-08 -1.17786e-08 -1.04966e-08 -9.3422e-09 -8.69534e-09 -8.00191e-09 -7.44277e-09 -6.86921e-09 -6.43393e-09 -5.98407e-09 -5.62939e-09 -5.26527e-09 -4.97037e-09 -4.66963e-09 -4.41794e-09 -4.1634e-09 -3.94313e-09 -3.72239e-09 -3.52499e-09 -3.32904e-09 -3.14834e-09 -2.97059e-09 -2.80213e-09 -2.63779e-09 -2.4783e-09 -2.32385e-09 -2.17095e-09 -2.02379e-09 -1.87572e-09 -1.73395e-09 -1.5894e-09 -1.45158e-09 -1.30958e-09 -1.17465e-09 -1.03446e-09 -9.01588e-10 -7.62612e-10 -6.31176e-10 -4.92946e-10 -3.62431e-10 -2.24538e-10 -9.45115e-11 4.34245e-11 1.73351e-10 3.11715e-10 4.41925e-10 5.81139e-10 7.12038e-10 8.526e-10 9.84654e-10 1.12718e-09 1.26095e-09 1.40622e-09 1.54242e-09 1.69144e-09 1.83099e-09 1.98511e-09 2.12918e-09 2.29016e-09 2.44033e-09 2.61051e-09 2.76884e-09 2.95133e-09 3.12056e-09 3.31949e-09 3.50325e-09 3.72415e-09 3.92724e-09 4.17758e-09 4.40642e-09 4.69605e-09 4.95829e-09 5.30151e-09 5.60742e-09 6.01372e-09 6.35315e-09 6.85019e-09 7.2209e-09 7.72222e-09 -1.34979e-08 -1.03866e-08 -1.03992e-08 5.37634e-09 -6.29374e-09 -6.13695e-09 -5.91392e-09 -5.68699e-09 -5.4916e-09 -5.29515e-09 -5.11169e-09 -4.92942e-09 -4.75664e-09 -4.58569e-09 -4.42152e-09 -4.25925e-09 -4.10233e-09 -3.94709e-09 -3.79613e-09 -3.64652e-09 -3.5004e-09 -3.35528e-09 -3.21301e-09 -3.07143e-09 -2.93218e-09 -2.79335e-09 -2.65646e-09 -2.51976e-09 -2.38468e-09 -2.24963e-09 -2.11594e-09 -1.98213e-09 -1.8495e-09 -1.71663e-09 -1.58479e-09 -1.45263e-09 -1.32139e-09 -1.18975e-09 -1.05894e-09 -9.27679e-10 -7.97168e-10 -6.66166e-10 -5.35853e-10 -4.05012e-10 -2.74805e-10 -1.44035e-10 -1.38508e-11 1.1693e-10 2.47176e-10 3.78053e-10 5.08453e-10 6.39522e-10 7.70181e-10 9.01556e-10 1.0326e-09 1.16443e-09 1.29603e-09 1.42848e-09 1.56085e-09 1.69418e-09 1.82761e-09 1.96213e-09 2.09699e-09 2.23313e-09 2.36994e-09 2.50829e-09 2.64775e-09 2.7891e-09 2.93214e-09 3.07758e-09 3.2255e-09 3.3765e-09 3.53103e-09 3.68963e-09 3.85297e-09 4.02187e-09 4.19628e-09 4.37841e-09 4.5639e-09 4.76012e-09 4.94494e-09 5.14382e-09 5.25299e-09 7.94708e-09 7.83006e-09 7.03965e-09 7.17175e-09 6.99223e-09 6.7244e-09 5.97518e-09 6.23478e-09 6.1497e-09 5.84387e-09 5.34106e-09 5.48879e-09 5.42949e-09 5.19013e-09 4.80766e-09 4.89623e-09 4.82354e-09 4.64089e-09 4.34758e-09 4.38792e-09 4.30299e-09 4.16426e-09 3.9386e-09 3.94143e-09 3.84751e-09 3.74117e-09 3.56745e-09 3.54119e-09 3.44098e-09 3.35869e-09 3.22455e-09 3.17604e-09 3.07129e-09 3.00695e-09 2.90283e-09 2.83738e-09 2.72929e-09 2.67838e-09 2.59694e-09 2.51865e-09 2.40806e-09 2.36723e-09 2.30289e-09 2.21488e-09 2.10236e-09 2.06912e-09 2.01766e-09 1.92227e-09 1.80827e-09 1.78073e-09 1.73899e-09 1.63798e-09 1.5228e-09 1.49957e-09 1.46518e-09 1.35985e-09 1.24368e-09 1.22373e-09 1.19495e-09 1.08624e-09 9.69199e-10 9.51775e-10 9.27314e-10 8.15882e-10 6.98009e-10 6.82578e-10 6.61524e-10 5.478e-10 4.29061e-10 4.15258e-10 3.96987e-10 2.81205e-10 1.61493e-10 1.49093e-10 1.33221e-10 1.54384e-11 -1.05438e-10 -1.16538e-10 -1.30189e-10 -2.50085e-10 -3.72417e-10 -3.82207e-10 -3.93623e-10 -5.15928e-10 -6.40132e-10 -6.4849e-10 -6.57463e-10 -7.82679e-10 -9.09335e-10 -9.16012e-10 -9.22121e-10 -1.05101e-09 -1.1809e-09 -1.18551e-09 -1.18808e-09 -1.32171e-09 -1.45593e-09 -1.45788e-09 -1.45592e-09 -1.5958e-09 -1.7358e-09 -1.73429e-09 -1.72641e-09 -1.87459e-09 -2.02236e-09 -2.01624e-09 -2.00051e-09 -2.15981e-09 -2.31802e-09 -2.30577e-09 -2.27952e-09 -2.45377e-09 -2.62607e-09 -2.60556e-09 -2.56514e-09 -2.75958e-09 -2.95093e-09 -2.91927e-09 -2.85968e-09 -3.08146e-09 -3.29864e-09 -3.25186e-09 -3.16619e-09 -3.42512e-09 -3.67744e-09 -3.61007e-09 -3.48881e-09 -3.79841e-09 -4.09865e-09 -4.00319e-09 -3.83312e-09 -4.21209e-09 -4.5779e-09 -4.44398e-09 -4.20667e-09 -4.68107e-09 -5.13683e-09 -4.95024e-09 -4.61975e-09 -5.22615e-09 -5.80545e-09 -5.54686e-09 -5.08652e-09 -5.87665e-09 -6.62623e-09 -6.26962e-09 -5.62673e-09 -6.67609e-09 -7.65312e-09 -7.1708e-09 -6.2668e-09 -7.67208e-09 -8.9977e-09 -8.3074e-09 -7.05421e-09 -9.04103e-09 -1.05839e-08 -9.92206e-09 -7.99416e-09 -1.00082e-08 2.15623e-09 2.55948e-09 3.27889e-09 4.15628e-09 5.06747e-09 5.91337e-09 6.8108e-09 7.62263e-09 8.52931e-09 9.3042e-09 1.02367e-08 1.09898e-08 1.19715e-08 1.27117e-08 1.3765e-08 1.44936e-08 1.5642e-08 1.63521e-08 1.76227e-08 1.82927e-08 1.97194e-08 2.03018e-08 2.19272e-08 2.23309e-08 2.42047e-08 2.42713e-08 2.64343e-08 2.59465e-08 2.83891e-08 2.71769e-08 2.97876e-08 2.78921e-08 3.04351e-08 2.81174e-08 3.02664e-08 2.78428e-08 2.93141e-08 2.70225e-08 2.77514e-08 2.57115e-08 2.58556e-08 2.40859e-08 2.38632e-08 2.23293e-08 2.19052e-08 2.05625e-08 2.00368e-08 1.88474e-08 1.82766e-08 1.72121e-08 1.66268e-08 1.56666e-08 1.50828e-08 1.42127e-08 1.36389e-08 1.28495e-08 1.22903e-08 1.15781e-08 1.10397e-08 1.04061e-08 9.89073e-09 9.35705e-09 8.87787e-09 8.4276e-09 3.80536e-09 4.72887e-09 5.52599e-09 6.25704e-09 6.96213e-09 7.56008e-09 8.23258e-09 8.79402e-09 9.48156e-09 1.00695e-08 1.08076e-08 1.1457e-08 1.22723e-08 1.29978e-08 1.39115e-08 1.47149e-08 1.57453e-08 1.66147e-08 1.77789e-08 1.86836e-08 1.99973e-08 2.08748e-08 2.23506e-08 2.30877e-08 2.47261e-08 2.51565e-08 2.69242e-08 2.68801e-08 2.86788e-08 2.80899e-08 2.97555e-08 2.86838e-08 3.00296e-08 2.86159e-08 2.94784e-08 2.78943e-08 2.81882e-08 2.65952e-08 2.63759e-08 2.48767e-08 2.43084e-08 2.29432e-08 2.2197e-08 2.09712e-08 2.01666e-08 1.90723e-08 1.82768e-08 1.7301e-08 1.6548e-08 1.56754e-08 1.49775e-08 1.41904e-08 1.35467e-08 1.28241e-08 1.22219e-08 1.15377e-08 1.09486e-08 1.02693e-08 9.64113e-09 8.92196e-09 8.1669e-09 7.34418e-09 6.37376e-09 1.53927e-09 2.44986e-09 2.14501e-09 3.15676e-09 3.44466e-09 3.81513e-09 4.09285e-09 4.57535e-09 5.10918e-09 5.32045e-09 5.70287e-09 6.10678e-09 6.75531e-09 6.86426e-09 7.14337e-09 7.65322e-09 8.38289e-09 8.40689e-09 8.53208e-09 9.20361e-09 1.00192e-08 9.95992e-09 9.94586e-09 1.07809e-08 1.16938e-08 1.15569e-08 1.14413e-08 1.24218e-08 1.3438e-08 1.32357e-08 1.30573e-08 1.41608e-08 1.52792e-08 1.50269e-08 1.48181e-08 1.60229e-08 1.72372e-08 1.69491e-08 1.67352e-08 1.80195e-08 1.93198e-08 1.90052e-08 1.88032e-08 2.01428e-08 2.15149e-08 2.11754e-08 2.09894e-08 2.23528e-08 2.37719e-08 2.34012e-08 2.32151e-08 2.45531e-08 2.5971e-08 2.5562e-08 2.53363e-08 2.65647e-08 2.78984e-08 2.74556e-08 2.71487e-08 2.81478e-08 2.92891e-08 2.88309e-08 2.84415e-08 2.91061e-08 2.99411e-08 2.94832e-08 2.90638e-08 2.93551e-08 2.9777e-08 2.93273e-08 2.89519e-08 2.88782e-08 2.88405e-08 2.84139e-08 2.81337e-08 2.77309e-08 2.73121e-08 2.69255e-08 2.67359e-08 2.60946e-08 2.54522e-08 2.51083e-08 2.49615e-08 2.42096e-08 2.34829e-08 2.31712e-08 2.30199e-08 2.2265e-08 2.15369e-08 2.12467e-08 2.10664e-08 2.03699e-08 1.96777e-08 1.94055e-08 1.91908e-08 1.85768e-08 1.79306e-08 1.76798e-08 1.74353e-08 1.69059e-08 1.63015e-08 1.60793e-08 1.58126e-08 1.53592e-08 1.47864e-08 1.46002e-08 1.43182e-08 1.39284e-08 1.33769e-08 1.32306e-08 1.29365e-08 1.25987e-08 1.20642e-08 1.19541e-08 1.16436e-08 1.13536e-08 1.08436e-08 1.07558e-08 1.04092e-08 1.01826e-08 9.726e-09 9.63347e-09 9.20315e-09 9.11215e-09 8.73881e-09 8.65539e-09 8.00127e-09 8.1653e-09 -5.6546e-09 -6.37169e-09 -4.45557e-09 -4.82098e-09 -5.05604e-09 -4.76743e-09 -4.22437e-09 -3.74528e-09 -3.50129e-09 -3.26789e-09 -3.09205e-09 -2.92538e-09 -2.79071e-09 -2.66064e-09 -2.54568e-09 -2.4333e-09 -2.3289e-09 -2.22605e-09 -2.12772e-09 -2.03041e-09 -1.93585e-09 -1.84202e-09 -1.74998e-09 -1.65846e-09 -1.56819e-09 -1.47832e-09 -1.38933e-09 -1.30066e-09 -1.21264e-09 -1.12487e-09 -1.03759e-09 -9.50517e-10 -8.63796e-10 -7.77253e-10 -6.90963e-10 -6.04821e-10 -5.18853e-10 -4.33008e-10 -3.47271e-10 -2.61637e-10 -1.76052e-10 -9.05516e-11 -5.04871e-12 8.03867e-11 1.65873e-10 2.51309e-10 3.36843e-10 4.22342e-10 5.07988e-10 5.93614e-10 6.79438e-10 7.65259e-10 8.5133e-10 9.37417e-10 1.02381e-09 1.11024e-09 1.19703e-09 1.28388e-09 1.37115e-09 1.4585e-09 1.54631e-09 1.63422e-09 1.72262e-09 1.81111e-09 1.90004e-09 1.98905e-09 2.07828e-09 2.16753e-09 2.25642e-09 2.34516e-09 2.4322e-09 2.5187e-09 2.60056e-09 2.68104e-09 2.75055e-09 2.81719e-09 2.85956e-09 2.89582e-09 2.88092e-09 2.84872e-09 2.65444e-09 2.35806e-09 2.18137e-09 -3.87616e-09 -3.45103e-09 -3.11305e-09 -2.8458e-09 -2.6154e-09 -2.40562e-09 -2.20808e-09 -2.01828e-09 -1.83368e-09 -1.65274e-09 -1.4745e-09 -1.2983e-09 -1.12365e-09 -9.50207e-10 -7.777e-10 -6.0591e-10 -4.34659e-10 -2.63794e-10 -9.31844e-11 7.72886e-11 2.47737e-10 4.1827e-10 5.88997e-10 7.60034e-10 9.31502e-10 1.10353e-09 1.27627e-09 1.44986e-09 1.62444e-09 1.80013e-09 1.97696e-09 2.15481e-09 2.33315e-09 2.51069e-09 2.6844e-09 2.84752e-09 2.98531e-09 3.06608e-09 2.99382e-09 -4.4261e-09 -4.4381e-09 -3.99273e-09 -3.62909e-09 -3.3972e-09 -3.19402e-09 -3.03438e-09 -2.88551e-09 -2.7587e-09 -2.63678e-09 -2.52622e-09 -2.41801e-09 -2.31629e-09 -2.21575e-09 -2.11919e-09 -2.02327e-09 -1.92996e-09 -1.83702e-09 -1.74589e-09 -1.655e-09 -1.56541e-09 -1.476e-09 -1.38754e-09 -1.29923e-09 -1.21163e-09 -1.12414e-09 -1.0372e-09 -9.50354e-10 -8.63914e-10 -7.77563e-10 -6.91508e-10 -6.05533e-10 -5.19766e-10 -4.34073e-10 -3.48513e-10 -2.63021e-10 -1.77596e-10 -9.22358e-11 -6.8845e-12 7.84081e-11 1.63746e-10 2.4903e-10 3.34412e-10 4.19745e-10 5.0523e-10 5.9067e-10 6.76318e-10 7.61927e-10 8.47802e-10 9.33643e-10 1.01981e-09 1.10596e-09 1.1925e-09 1.27901e-09 1.36599e-09 1.45296e-09 1.54045e-09 1.62792e-09 1.71596e-09 1.80398e-09 1.89256e-09 1.98108e-09 2.07007e-09 2.1589e-09 2.24786e-09 2.33646e-09 2.42435e-09 2.51144e-09 2.59597e-09 2.67869e-09 2.75462e-09 2.82638e-09 2.88316e-09 2.92974e-09 2.94748e-09 2.94463e-09 2.89666e-09 2.85193e-09 2.59797e-09 -4.58347e-09 -3.75287e-09 -3.25262e-09 -2.9164e-09 -2.65414e-09 -2.42863e-09 -2.22267e-09 -2.02799e-09 -1.84032e-09 -1.65733e-09 -1.47762e-09 -1.30031e-09 -1.12481e-09 -9.50689e-10 -7.77622e-10 -6.0536e-10 -4.33697e-10 -2.62462e-10 -9.15065e-11 7.9304e-11 2.50095e-10 4.20988e-10 5.92106e-10 7.63578e-10 9.35538e-10 1.10813e-09 1.2815e-09 1.4558e-09 1.63115e-09 1.80762e-09 1.98507e-09 2.16303e-09 2.34018e-09 2.51347e-09 2.67614e-09 2.81363e-09 2.89556e-09 2.85511e-09 2.56887e-09 2.51294e-09 -4.17701e-09 -4.10716e-09 -4.08598e-09 -4.06053e-09 -4.04059e-09 -4.01576e-09 -3.9795e-09 -3.93862e-09 -3.88428e-09 -3.82591e-09 -3.75553e-09 -3.68173e-09 -3.59816e-09 -3.51175e-09 -3.41765e-09 -3.32123e-09 -3.21887e-09 -3.11464e-09 -3.00585e-09 -2.89557e-09 -2.78184e-09 -2.66692e-09 -2.54939e-09 -2.43093e-09 -2.31051e-09 -2.18936e-09 -2.06675e-09 -1.94357e-09 -1.81932e-09 -1.69461e-09 -1.56913e-09 -1.4433e-09 -1.31691e-09 -1.19025e-09 -1.06322e-09 -9.35965e-10 -8.08486e-10 -6.80836e-10 -5.53077e-10 -4.25188e-10 -2.97292e-10 -1.69304e-10 -4.14026e-11 8.65529e-11 2.14326e-10 3.42114e-10 4.69615e-10 5.97086e-10 7.24148e-10 8.51126e-10 9.77543e-10 1.10381e-09 1.22932e-09 1.35459e-09 1.47886e-09 1.60277e-09 1.72534e-09 1.8474e-09 1.96767e-09 2.08724e-09 2.20442e-09 2.32061e-09 2.43361e-09 2.54525e-09 2.65259e-09 2.75807e-09 2.85765e-09 2.95472e-09 3.04348e-09 3.12885e-09 3.20183e-09 3.27026e-09 3.31838e-09 3.36041e-09 3.3641e-09 3.35952e-09 3.27052e-09 3.17016e-09 2.85254e-09 3.71225e-09 3.56425e-09 5.15724e-09 -5.03936e-09 -4.93871e-09 -4.76272e-09 -4.54521e-09 -4.30579e-09 -4.05463e-09 -3.79742e-09 -3.53727e-09 -3.27586e-09 -3.0141e-09 -2.75243e-09 -2.49105e-09 -2.23002e-09 -1.96934e-09 -1.70896e-09 -1.44885e-09 -1.18895e-09 -9.29226e-10 -6.69622e-10 -4.10102e-10 -1.50628e-10 1.08837e-10 3.68334e-10 6.2791e-10 8.87622e-10 1.14754e-09 1.40777e-09 1.66842e-09 1.92968e-09 2.19178e-09 2.45506e-09 2.71999e-09 2.98723e-09 3.25776e-09 3.53302e-09 3.81527e-09 4.10811e-09 4.41798e-09 4.75789e-09 -4.79728e-09 -4.73155e-09 -4.65401e-09 -4.56873e-09 -4.49934e-09 -4.42385e-09 -4.3453e-09 -4.26172e-09 -4.1722e-09 -4.07886e-09 -3.97956e-09 -3.87741e-09 -3.77038e-09 -3.66128e-09 -3.54839e-09 -3.43401e-09 -3.31676e-09 -3.19845e-09 -3.07797e-09 -2.95676e-09 -2.8339e-09 -2.71055e-09 -2.58594e-09 -2.46101e-09 -2.33511e-09 -2.20903e-09 -2.08218e-09 -1.95525e-09 -1.82771e-09 -1.70015e-09 -1.57211e-09 -1.4441e-09 -1.31569e-09 -1.18736e-09 -1.05869e-09 -9.30132e-10 -8.01294e-10 -6.72584e-10 -5.43638e-10 -4.14841e-10 -2.85844e-10 -1.57014e-10 -2.80179e-11 1.00795e-10 2.29741e-10 3.58487e-10 4.87329e-10 6.15951e-10 7.44629e-10 8.73063e-10 1.0015e-09 1.12967e-09 1.25777e-09 1.38556e-09 1.51321e-09 1.6405e-09 1.76753e-09 1.89414e-09 2.02035e-09 2.14604e-09 2.27113e-09 2.39558e-09 2.51916e-09 2.64195e-09 2.76347e-09 2.88397e-09 3.0026e-09 3.11991e-09 3.23433e-09 3.34696e-09 3.45468e-09 3.55993e-09 3.65554e-09 3.74766e-09 3.81763e-09 3.88256e-09 3.89011e-09 3.89023e-09 3.73284e-09 -4.19756e-09 -4.1917e-09 -4.13409e-09 -4.03417e-09 -3.89992e-09 -3.73787e-09 -3.55365e-09 -3.35198e-09 -3.13671e-09 -2.91094e-09 -2.67713e-09 -2.43718e-09 -2.19258e-09 -1.94447e-09 -1.69374e-09 -1.44105e-09 -1.18694e-09 -9.31809e-10 -6.75986e-10 -4.19738e-10 -1.63301e-10 9.31101e-11 3.49274e-10 6.04949e-10 8.59855e-10 1.11364e-09 1.36587e-09 1.61595e-09 1.86312e-09 2.10636e-09 2.3443e-09 2.57511e-09 2.79632e-09 3.00464e-09 3.19571e-09 3.36387e-09 3.50226e-09 3.60402e-09 3.66733e-09 1.87025e-09 1.82313e-09 1.89828e-09 1.99619e-09 2.206e-09 2.40377e-09 2.81958e-09 3.21227e-09 3.83358e-09 4.4302e-09 5.22829e-09 6.00384e-09 6.93913e-09 7.85437e-09 8.89208e-09 9.90974e-09 1.10258e-08 1.21169e-08 1.32941e-08 1.44336e-08 1.56514e-08 1.68068e-08 1.80289e-08 1.91479e-08 2.03142e-08 2.13177e-08 2.23472e-08 2.31393e-08 2.39432e-08 2.44358e-08 2.49342e-08 2.50736e-08 2.52113e-08 2.49884e-08 2.47522e-08 2.42003e-08 2.36298e-08 2.28156e-08 2.1994e-08 2.10025e-08 2.00269e-08 1.89417e-08 1.7895e-08 1.67806e-08 1.57192e-08 1.46155e-08 1.35734e-08 1.25023e-08 1.15029e-08 1.04797e-08 9.54758e-09 8.59114e-09 7.75746e-09 6.89556e-09 6.19375e-09 5.45916e-09 4.91103e-09 4.32804e-09 3.92294e-09 3.48822e-09 3.13852e-09 2.78383e-09 2.63413e-09 6.29735e-09 7.31178e-09 8.48742e-09 9.79927e-09 1.12267e-08 1.27608e-08 1.44044e-08 1.61636e-08 1.80385e-08 2.00122e-08 2.20359e-08 2.401e-08 2.57739e-08 2.71303e-08 2.79039e-08 2.79905e-08 2.73708e-08 2.61045e-08 2.43223e-08 2.22085e-08 1.99563e-08 1.77166e-08 1.5579e-08 1.35859e-08 1.17521e-08 1.00798e-08 8.56963e-09 7.2293e-09 6.08137e-09 5.16634e-09 4.55844e-09 4.20567e-09 4.7577e-09 5.43803e-09 6.04775e-09 6.66525e-09 7.22316e-09 7.89444e-09 8.50772e-09 9.25081e-09 9.94485e-09 1.0753e-08 1.15278e-08 1.23925e-08 1.32415e-08 1.41582e-08 1.50754e-08 1.60399e-08 1.70199e-08 1.8021e-08 1.90554e-08 2.00652e-08 2.11372e-08 2.20989e-08 2.31738e-08 2.39953e-08 2.50116e-08 2.55787e-08 2.64475e-08 2.66633e-08 2.72828e-08 2.71047e-08 2.73892e-08 2.68359e-08 2.67391e-08 2.58774e-08 2.54037e-08 2.43303e-08 2.35389e-08 2.23567e-08 2.13511e-08 2.01456e-08 1.90383e-08 1.78657e-08 1.67442e-08 1.56349e-08 1.45507e-08 1.35196e-08 1.24976e-08 1.15529e-08 1.0604e-08 9.75336e-09 8.88384e-09 8.13768e-09 7.35717e-09 6.72726e-09 6.05096e-09 5.54148e-09 4.98162e-09 4.56852e-09 4.10839e-09 3.67834e-09 3.19254e-09 2.90386e-09 4.11624e-09 4.76136e-09 5.69437e-09 6.89076e-09 8.33251e-09 9.98418e-09 1.18032e-08 1.37508e-08 1.57965e-08 1.79074e-08 2.00301e-08 2.20691e-08 2.38759e-08 2.52656e-08 2.60631e-08 2.61551e-08 2.55181e-08 2.42185e-08 2.23968e-08 2.02367e-08 1.79193e-08 1.55845e-08 1.332e-08 1.11758e-08 9.18683e-09 7.3919e-09 5.84176e-09 4.59265e-09 3.69359e-09 3.17991e-09 3.11877e-09 -1.27633e-08 -1.31748e-08 -1.34533e-08 -1.37336e-08 -1.40654e-08 -1.43257e-08 -1.46898e-08 -1.49882e-08 -1.53855e-08 -1.57479e-08 -1.61971e-08 -1.66381e-08 -1.71548e-08 -1.76789e-08 -1.82698e-08 -1.8875e-08 -1.95368e-08 -2.02157e-08 -2.09349e-08 -2.16736e-08 -2.24237e-08 -2.31993e-08 -2.39378e-08 -2.47132e-08 -2.53784e-08 -2.60979e-08 -2.66121e-08 -2.72005e-08 -2.74833e-08 -2.78572e-08 -2.78494e-08 -2.79406e-08 -2.76278e-08 -2.7411e-08 -2.68321e-08 -2.63363e-08 -2.55665e-08 -2.48609e-08 -2.39848e-08 -2.31529e-08 -2.22429e-08 -2.13605e-08 -2.04682e-08 -1.95931e-08 -1.87511e-08 -1.79211e-08 -1.71477e-08 -1.63841e-08 -1.56882e-08 -1.4999e-08 -1.43812e-08 -1.3762e-08 -1.32144e-08 -1.26471e-08 -1.21494e-08 -1.15998e-08 -1.11106e-08 -1.05274e-08 -9.97693e-09 -9.30643e-09 -8.53456e-09 -7.65986e-09 -6.65311e-09 -9.4874e-09 -9.42204e-09 -9.78167e-09 -1.04644e-08 -1.14235e-08 -1.26058e-08 -1.39601e-08 -1.54477e-08 -1.70433e-08 -1.87251e-08 -2.04592e-08 -2.21821e-08 -2.3782e-08 -2.5089e-08 -2.58952e-08 -2.60243e-08 -2.54184e-08 -2.41705e-08 -2.24763e-08 -2.05469e-08 -1.85456e-08 -1.65741e-08 -1.46859e-08 -1.29053e-08 -1.12456e-08 -9.72307e-09 -8.36682e-09 -7.21579e-09 -6.30414e-09 -5.64069e-09 -5.21177e-09 -1.0497e-08 -1.06169e-08 -1.08038e-08 -1.09563e-08 -1.11854e-08 -1.13713e-08 -1.17368e-08 -1.20409e-08 -1.25223e-08 -1.29412e-08 -1.35109e-08 -1.40257e-08 -1.46678e-08 -1.526e-08 -1.59687e-08 -1.66226e-08 -1.73957e-08 -1.80967e-08 -1.89294e-08 -1.96587e-08 -2.0539e-08 -2.12669e-08 -2.217e-08 -2.2848e-08 -2.37303e-08 -2.42871e-08 -2.50821e-08 -2.54295e-08 -2.60519e-08 -2.61076e-08 -2.64712e-08 -2.61923e-08 -2.62398e-08 -2.56453e-08 -2.53733e-08 -2.45361e-08 -2.39967e-08 -2.30122e-08 -2.229e-08 -2.12448e-08 -2.0426e-08 -1.93837e-08 -1.85354e-08 -1.7535e-08 -1.67007e-08 -1.57621e-08 -1.49665e-08 -1.40968e-08 -1.33536e-08 -1.2552e-08 -1.18698e-08 -1.11317e-08 -1.05179e-08 -9.83878e-09 -9.30042e-09 -8.68195e-09 -8.22252e-09 -7.67365e-09 -7.27746e-09 -6.79811e-09 -6.34338e-09 -5.82369e-09 -5.15631e-09 -1.23947e-08 -1.22833e-08 -1.26766e-08 -1.33615e-08 -1.42366e-08 -1.52631e-08 -1.64281e-08 -1.77247e-08 -1.91413e-08 -2.06543e-08 -2.22197e-08 -2.37626e-08 -2.51682e-08 -2.62846e-08 -2.69481e-08 -2.70309e-08 -2.64941e-08 -2.54062e-08 -2.39126e-08 -2.2181e-08 -2.03585e-08 -1.85512e-08 -1.68246e-08 -1.52129e-08 -1.37283e-08 -1.23681e-08 -1.1118e-08 -9.95922e-09 -8.88113e-09 -7.89323e-09 -7.0494e-09 
</DataArray>
<DataArray Name="Warping_Y" format="ascii" type="Float64">