<?xml version="1.0"?>
<VTKFile byte_order="LittleEndian" type="UnstructuredGrid" version="0.1">
<UnstructuredGrid>
<Piece NumberOfCells="576" NumberOfPoints="2016">
<PointData>
<DataArray Name="Warping_X" format="ascii" type="Float64">
2.54323e-08 2.30539e-08 2.27084e-08 2.07174e-08 1.88222e-08 1.66811e-08 1.49817e-08 1.21662e-08 1.026e-08 6.56584e-09 4.24485e-09 -3.22992e-10 -3.17342e-09 -8.55771e-09 -1.20307e-08 -1.81818e-08 -2.23763e-08 -2.92414e-08 -3.42491e-08 -4.173e-08 -4.76195e-08 -5.55156e-08 -6.23287e-08 -7.02423e-08 -7.80035e-08 -8.51377e-08 -9.38758e-08 -9.87716e-08 -1.08517e-07 -1.09197e-07 -1.19777e-07 -1.15044e-07 -1.25518e-07 -1.16328e-07 -1.24629e-07 -1.13419e-07 -1.17204e-07 -1.06049e-07 -1.04508e-07 -9.43206e-08 -8.87473e-08 -7.96798e-08 -7.20594e-08 -6.4072e-08 -5.58283e-08 -4.88873e-08 -4.0778e-08 -3.48552e-08 -2.72474e-08 -2.22979e-08 -1.53736e-08 -1.13256e-08 -5.18207e-09 -1.94102e-09 3.34338e-09 5.87088e-09 1.01838e-08 1.2063e-08 1.52565e-08 1.65458e-08 1.85444e-08 1.93929e-08 2.01251e-08 2.056e-08 2.15174e-08 3.45032e-08 2.46012e-08 2.72217e-08 3.06124e-08 3.93047e-08 3.28062e-08 2.58331e-08 1.72277e-08 8.35845e-09 2.96541e-10 -8.00741e-09 -1.48301e-08 -2.19547e-08 -2.76025e-08 -3.36645e-08 -3.85057e-08 -4.39217e-08 -4.83528e-08 -5.35971e-08 -5.79008e-08 -6.33737e-08 -6.76752e-08 -7.36715e-08 -7.79344e-08 -8.46592e-08 -8.86768e-08 -9.62732e-08 -9.96293e-08 -1.08175e-07 -1.10196e-07 -1.19635e-07 -1.19432e-07 -1.29427e-07 -1.26183e-07 -1.35942e-07 -1.29441e-07 -1.37758e-07 -1.28687e-07 -1.34366e-07 -1.2398e-07 -1.26422e-07 -1.15936e-07 -1.15423e-07 -1.05606e-07 -1.02986e-07 -9.41432e-08 -9.03016e-08 -8.24645e-08 -7.80598e-08 -7.11349e-08 -6.65706e-08 -6.04078e-08 -5.58854e-08 -5.02844e-08 -4.5847e-08 -4.05382e-08 -3.60934e-08 -3.07329e-08 -2.60714e-08 -2.02713e-08 -1.50957e-08 -8.53748e-09 -2.5622e-09 4.77496e-09 1.15735e-08 1.89029e-08 2.575e-08 3.03718e-08 2.75841e-08 2.98803e-08 3.40185e-08 2.61424e-08 2.16212e-08 2.20736e-08 2.39608e-08 1.78841e-08 1.57615e-08 1.38025e-08 1.22271e-08 9.20231e-09 9.45719e-09 5.17132e-09 2.66325e-10 2.96005e-10 2.39417e-09 -3.73816e-09 -1.10495e-08 -8.76597e-09 -5.56597e-09 -1.28632e-08 -2.1618e-08 -1.80635e-08 -1.44964e-08 -2.2352e-08 -3.17481e-08 -2.78309e-08 -2.44822e-08 -3.2449e-08 -4.18983e-08 -3.83185e-08 -3.56009e-08 -4.33626e-08 -5.24733e-08 -4.96895e-08 -4.78708e-08 -5.51882e-08 -6.37203e-08 -6.19743e-08 -6.11923e-08 -6.788e-08 -7.57048e-08 -7.50444e-08 -7.52781e-08 -8.12204e-08 -8.82971e-08 -8.85656e-08 -8.95271e-08 -9.4746e-08 -1.0111e-07 -1.01894e-07 -1.0283e-07 -1.07607e-07 -1.13365e-07 -1.13937e-07 -1.13548e-07 -1.18432e-07 -1.2376e-07 -1.23132e-07 -1.20103e-07 -1.25513e-07 -1.30619e-07 -1.2783e-07 -1.21766e-07 -1.27484e-07 -1.32535e-07 -1.27017e-07 -1.1849e-07 -1.23909e-07 -1.2903e-07 -1.20773e-07 -1.10449e-07 -1.15372e-07 -1.20729e-07 -1.10236e-07 -9.84765e-08 -1.03329e-07 -1.09124e-07 -9.71078e-08 -8.41977e-08 -8.95121e-08 -9.59057e-08 -8.29471e-08 -6.92379e-08 -7.52716e-08 -8.23479e-08 -6.8821e-08 -5.46717e-08 -6.14315e-08 -6.91982e-08 -5.53522e-08 -4.10676e-08 -4.84401e-08 -5.68229e-08 -4.28686e-08 -2.86907e-08 -3.65186e-08 -4.53484e-08 -3.15117e-08 -1.76338e-08 -2.57357e-08 -3.47251e-08 -2.12787e-08 -7.89507e-09 -1.60289e-08 -2.47377e-08 -1.20316e-08 5.53488e-10 -7.20657e-09 -1.50224e-08 -3.51997e-09 7.71314e-09 9.91827e-10 -5.16999e-09 4.50433e-09 1.35584e-08 8.71706e-09 5.06538e-09 1.20761e-08 1.81381e-08 1.57918e-08 1.54738e-08 1.875e-08 2.19598e-08 2.14804e-08 2.51114e-08 2.47539e-08 1.84066e-08 2.56501e-08 2.60176e-08 2.62764e-08 2.66419e-08 2.69194e-08 2.7282e-08 2.7541e-08 2.78641e-08 2.80987e-08 2.83835e-08 2.85924e-08 2.88435e-08 2.90278e-08 2.92501e-08 2.94113e-08 2.96085e-08 2.97484e-08 2.99237e-08 3.00444e-08 3.02005e-08 3.03042e-08 3.04437e-08 3.05324e-08 3.06576e-08 3.07332e-08 3.08459e-08 3.09103e-08 3.10122e-08 3.10667e-08 3.11593e-08 3.12051e-08 3.12895e-08 3.13276e-08 3.14046e-08 3.14358e-08 3.1506e-08 3.15307e-08 3.15946e-08 3.1613e-08 3.16707e-08 3.16829e-08 3.17343e-08 3.17401e-08 3.1785e-08 3.1784e-08 3.18217e-08 3.18131e-08 3.18429e-08 3.18258e-08 3.18464e-08 3.18195e-08 3.18295e-08 3.17909e-08 3.17883e-08 3.1736e-08 3.17183e-08 3.16493e-08 3.16135e-08 3.15244e-08 3.14664e-08 3.13529e-08 3.1268e-08 3.11246e-08 3.10067e-08 3.0827e-08 3.06687e-08 3.04449e-08 3.02374e-08 2.99603e-08 2.96937e-08 2.9353e-08 2.90171e-08 2.85946e-08 2.81744e-08 2.76085e-08 2.7056e-08 2.59938e-08 2.49732e-08 2.16923e-08 4.12295e-08 4.2056e-08 4.3062e-08 4.25473e-08 4.21766e-08 4.16172e-08 4.11185e-08 4.06475e-08 4.01968e-08 3.98133e-08 3.94292e-08 3.91138e-08 3.87869e-08 3.85257e-08 3.82462e-08 3.80287e-08 3.77885e-08 3.76069e-08 3.73993e-08 3.72474e-08 3.70668e-08 3.69395e-08 3.67815e-08 3.66745e-08 3.65352e-08 3.64453e-08 3.63216e-08 3.62459e-08 3.61353e-08 3.60714e-08 3.59718e-08 3.59181e-08 3.58278e-08 3.57827e-08 3.57004e-08 3.56629e-08 3.55877e-08 3.55569e-08 3.54882e-08 3.54636e-08 3.54009e-08 3.53822e-08 3.53253e-08 3.53125e-08 3.52616e-08 3.52549e-08 3.52102e-08 3.52101e-08 3.51723e-08 3.51795e-08 3.51496e-08 3.51652e-08 3.51444e-08 3.51699e-08 3.516e-08 3.51974e-08 3.52006e-08 3.52525e-08 3.52717e-08 3.53417e-08 3.53808e-08 3.54732e-08 3.55373e-08 3.56581e-08 3.57541e-08 3.59114e-08 3.60482e-08 3.62533e-08 3.64429e-08 3.67113e-08 3.69697e-08 3.73218e-08 3.76686e-08 3.81254e-08 3.85746e-08 3.91278e-08 3.96481e-08 4.02293e-08 4.06458e-08 4.0111e-08 3.15822e-08 2.83078e-08 4.43642e-08 3.09341e-08 3.00812e-08 3.35003e-08 4.07086e-08 3.40368e-08 3.04485e-08 3.45267e-08 3.92627e-08 3.46077e-08 3.10224e-08 3.46717e-08 3.84034e-08 3.46629e-08 3.15108e-08 3.46492e-08 3.77737e-08 3.46223e-08 3.18943e-08 3.45945e-08 3.72743e-08 3.45649e-08 3.21902e-08 3.45351e-08 3.68651e-08 3.45053e-08 3.24163e-08 3.44752e-08 3.65233e-08 3.44455e-08 3.25866e-08 3.44153e-08 3.62337e-08 3.43853e-08 3.27117e-08 3.43546e-08 3.59854e-08 3.43242e-08 3.28e-08 3.4293e-08 3.57701e-08 3.42619e-08 3.2858e-08 3.423e-08 3.55817e-08 3.41982e-08 3.28911e-08 3.41656e-08 3.5415e-08 3.4133e-08 3.29036e-08 3.40997e-08 3.52662e-08 3.40664e-08 3.28988e-08 3.40323e-08 3.51321e-08 3.39983e-08 3.28795e-08 3.39636e-08 3.50104e-08 3.39288e-08 3.28479e-08 3.38935e-08 3.4899e-08 3.38581e-08 3.28055e-08 3.38221e-08 3.47963e-08 3.37861e-08 3.27536e-08 3.37495e-08 3.47013e-08 3.37129e-08 3.26932e-08 3.36757e-08 3.46132e-08 3.36385e-08 3.26248e-08 3.36007e-08 3.45313e-08 3.35629e-08 3.25486e-08 3.35245e-08 3.44554e-08 3.3486e-08 3.24647e-08 3.3447e-08 3.43855e-08 3.34078e-08 3.23727e-08 3.3368e-08 3.43219e-08 3.33281e-08 3.22721e-08 3.32874e-08 3.42649e-08 3.32466e-08 3.21619e-08 3.3205e-08 3.42155e-08 3.31631e-08 3.20409e-08 3.31202e-08 3.41747e-08 3.3077e-08 3.19073e-08 3.30325e-08 3.41438e-08 3.29875e-08 3.17592e-08 3.29409e-08 3.41246e-08 3.28936e-08 3.15938e-08 3.28441e-08 3.41193e-08 3.27936e-08 3.14079e-08 3.27399e-08 3.41303e-08 3.26849e-08 3.11976e-08 3.26255e-08 3.41604e-08 3.25641e-08 3.09584e-08 3.24963e-08 3.42122e-08 3.24259e-08 3.06852e-08 3.23462e-08 3.42879e-08 3.22633e-08 3.03727e-08 3.21668e-08 3.43871e-08 3.20669e-08 3.00162e-08 3.19474e-08 3.45036e-08 3.18258e-08 2.9613e-08 3.16766e-08 3.46192e-08 3.15305e-08 2.9164e-08 3.13471e-08 3.46923e-08 3.11728e-08 2.86748e-08 3.09533e-08 3.46497e-08 3.07723e-08 2.81349e-08 3.05627e-08 3.43636e-08 3.02283e-08 5.5526e-08 4.72321e-08 5.68495e-08 5.88813e-08 5.39321e-08 5.0092e-08 4.90274e-08 4.73014e-08 4.63491e-08 4.4781e-08 4.4241e-08 4.30494e-08 4.27527e-08 4.18243e-08 4.17167e-08 4.09936e-08 4.10266e-08 4.04574e-08 4.05949e-08 4.01403e-08 4.03553e-08 3.99856e-08 4.02579e-08 3.9951e-08 4.02656e-08 4.00051e-08 4.03509e-08 4.01248e-08 4.04937e-08 4.02928e-08 4.06786e-08 4.04963e-08 4.08947e-08 4.07261e-08 4.11337e-08 4.0975e-08 4.13894e-08 4.12381e-08 4.16575e-08 4.15115e-08 4.19348e-08 4.17928e-08 4.2219e-08 4.208e-08 4.25086e-08 4.23719e-08 4.28027e-08 4.26681e-08 4.31011e-08 4.29684e-08 4.34037e-08 4.3273e-08 4.37112e-08 4.35827e-08 4.40244e-08 4.38985e-08 4.43446e-08 4.42217e-08 4.46731e-08 4.45539e-08 4.50116e-08 4.48961e-08 4.53612e-08 4.5249e-08 4.57216e-08 4.56113e-08 4.60904e-08 4.59781e-08 4.646e-08 4.6338e-08 4.68144e-08 4.66696e-08 4.71241e-08 4.69358e-08 4.7344e-08 4.70912e-08 4.74147e-08 4.70743e-08 4.72998e-08 4.69401e-08 4.72542e-08 6.27825e-08 4.30727e-08 4.86292e-08 4.50348e-08 3.49012e-08 3.54785e-08 3.52131e-08 3.50504e-08 3.48965e-08 3.48123e-08 3.46944e-08 3.46408e-08 3.45761e-08 3.45705e-08 3.45499e-08 3.45847e-08 3.46e-08 3.46676e-08 3.47108e-08 3.48037e-08 3.48682e-08 3.49804e-08 3.50612e-08 3.5188e-08 3.52812e-08 3.54191e-08 3.55216e-08 3.56678e-08 3.57773e-08 3.59297e-08 3.60443e-08 3.62013e-08 3.63198e-08 3.64801e-08 3.66014e-08 3.67642e-08 3.68875e-08 3.7052e-08 3.71767e-08 3.73425e-08 3.74682e-08 3.76347e-08 3.77611e-08 3.79283e-08 3.80551e-08 3.82227e-08 3.83499e-08 3.85178e-08 3.86453e-08 3.88135e-08 3.89413e-08 3.911e-08 3.92383e-08 3.94075e-08 3.95365e-08 3.97067e-08 3.98369e-08 4.00084e-08 4.01404e-08 4.03141e-08 4.04487e-08 4.06256e-08 4.07643e-08 4.09461e-08 4.10909e-08 4.12801e-08 4.14341e-08 4.16344e-08 4.18021e-08 4.20192e-08 4.22075e-08 4.24498e-08 4.26681e-08 4.2948e-08 4.32081e-08 4.35422e-08 4.38519e-08 4.42566e-08 4.45955e-08 4.50661e-08 4.52906e-08 4.57117e-08 4.52183e-08 4.53317e-08 4.37257e-08 4.4095e-08 4.46139e-08 4.59536e-08 4.5121e-08 4.51056e-08 4.53961e-08 4.62429e-08 4.55406e-08 4.5226e-08 4.55391e-08 4.62721e-08 4.55392e-08 4.4895e-08 4.53938e-08 4.61084e-08 4.53164e-08 4.44483e-08 4.51047e-08 4.5829e-08 4.49929e-08 4.39943e-08 4.47552e-08 4.54917e-08 4.46313e-08 4.35638e-08 4.43865e-08 4.51316e-08 4.42613e-08 4.31617e-08 4.40181e-08 4.47681e-08 4.38963e-08 4.2785e-08 4.36581e-08 4.44105e-08 4.35414e-08 4.24289e-08 4.33091e-08 4.40625e-08 4.31977e-08 4.20889e-08 4.29712e-08 4.37247e-08 4.28646e-08 4.17613e-08 4.26431e-08 4.33964e-08 4.25407e-08 4.14429e-08 4.23233e-08 4.30763e-08 4.22242e-08 4.11314e-08 4.20101e-08 4.27629e-08 4.19137e-08 4.0825e-08 4.17023e-08 4.2455e-08 4.16079e-08 4.05223e-08 4.13986e-08 4.21516e-08 4.1306e-08 4.02225e-08 4.10984e-08 4.18521e-08 4.10072e-08 3.99248e-08 4.08012e-08 4.15561e-08 4.07114e-08 3.9629e-08 4.05068e-08 4.12638e-08 4.04185e-08 3.9335e-08 4.02155e-08 4.09757e-08 4.0129e-08 3.90432e-08 3.99279e-08 4.06927e-08 3.98437e-08 3.87539e-08 3.96451e-08 4.04167e-08 3.9564e-08 3.84682e-08 3.93687e-08 4.01498e-08 3.92919e-08 3.81873e-08 3.9101e-08 3.98955e-08 3.90301e-08 3.7913e-08 3.88454e-08 3.96582e-08 3.87825e-08 3.76479e-08 3.86061e-08 3.94443e-08 3.85542e-08 3.73955e-08 3.83893e-08 3.92621e-08 3.83522e-08 3.71602e-08 3.82029e-08 3.9123e-08 3.81861e-08 3.69482e-08 3.80578e-08 3.90423e-08 3.80686e-08 3.6768e-08 3.79689e-08 3.90409e-08 3.80169e-08 3.66305e-08 3.79559e-08 3.91468e-08 3.80544e-08 3.65508e-08 3.80458e-08 3.93979e-08 3.82129e-08 3.6549e-08 3.82755e-08 3.98457e-08 3.85358e-08 3.66522e-08 3.86954e-08 4.05593e-08 3.90835e-08 3.68971e-08 3.93758e-08 4.1632e-08 3.99399e-08 3.73332e-08 4.04166e-08 4.31927e-08 4.12284e-08 3.80256e-08 4.1972e-08 4.5381e-08 4.31321e-08 3.90389e-08 4.41624e-08 4.86353e-08 4.57668e-08 4.04632e-08 4.78805e-08 5.20664e-08 5.03447e-08 4.15001e-08 4.67419e-08 4.03647e-08 4.00032e-08 3.8361e-08 3.64495e-08 3.43574e-08 3.00759e-08 2.67353e-08 2.09397e-08 1.70336e-08 9.78696e-09 5.3586e-09 -3.05382e-09 -7.95106e-09 -1.71502e-08 -2.25227e-08 -3.20945e-08 -3.80141e-08 -4.75639e-08 -5.41815e-08 -6.32905e-08 -7.08345e-08 -7.89693e-08 -8.77419e-08 -9.41278e-08 -1.04481e-07 -1.07958e-07 -1.20174e-07 -1.19293e-07 -1.33304e-07 -1.27077e-07 -1.42133e-07 -1.31074e-07 -1.45589e-07 -1.31653e-07 -1.43387e-07 -1.28792e-07 -1.35718e-07 -1.22065e-07 -1.23587e-07 -1.11659e-07 -1.08716e-07 -9.86076e-08 -9.26372e-08 -8.40817e-08 -7.62516e-08 -6.88974e-08 -5.99911e-08 -5.35267e-08 -4.40797e-08 -3.82598e-08 -2.86799e-08 -2.33277e-08 -1.39743e-08 -8.98091e-09 -2.03893e-10 4.48104e-09 1.23653e-08 1.6754e-08 2.35254e-08 2.76096e-08 3.31719e-08 3.68789e-08 4.1158e-08 4.43891e-08 4.10761e-08 4.13533e-08 3.9972e-08 3.80728e-08 3.51328e-08 3.11389e-08 2.67833e-08 2.12572e-08 1.57602e-08 9.18945e-09 2.87739e-09 -4.33741e-09 -1.12231e-08 -1.8809e-08 -2.61489e-08 -3.39152e-08 -4.16938e-08 -4.94635e-08 -5.77413e-08 -6.52619e-08 -7.41425e-08 -8.09692e-08 -9.05544e-08 -9.5924e-08 -1.06249e-07 -1.09089e-07 -1.19988e-07 -1.19324e-07 -1.30259e-07 -1.25872e-07 -1.35936e-07 -1.28486e-07 -1.36604e-07 -1.27123e-07 -1.3222e-07 -1.21766e-07 -1.23119e-07 -1.12609e-07 -1.10385e-07 -1.00379e-07 -9.55315e-08 -8.62166e-08 -7.98232e-08 -7.1178e-08 -6.40149e-08 -5.59437e-08 -4.84594e-08 -4.08545e-08 -3.32882e-08 -2.60713e-08 -1.85674e-08 -1.17179e-08 -4.41351e-09 2.00728e-09 8.91373e-09 1.47458e-08 2.09401e-08 2.5947e-08 3.10104e-08 3.49761e-08 3.84522e-08 4.12955e-08 4.3075e-08 3.88662e-08 3.86792e-08 3.93278e-08 3.86374e-08 3.84337e-08 3.72515e-08 3.94558e-08 3.63208e-08 3.41245e-08 3.42176e-08 3.51496e-08 3.12396e-08 2.72538e-08 2.73499e-08 2.84535e-08 2.30759e-08 1.7886e-08 1.80726e-08 1.9358e-08 1.28088e-08 6.56446e-09 6.96014e-09 8.2454e-09 9.12824e-10 -6.30642e-09 -5.5647e-09 -4.47263e-09 -1.22745e-08 -2.03973e-08 -1.92395e-08 -1.84135e-08 -2.65098e-08 -3.54488e-08 -3.38546e-08 -3.32696e-08 -4.15877e-08 -5.12465e-08 -4.92177e-08 -4.87991e-08 -5.73119e-08 -6.75817e-08 -6.51194e-08 -6.47605e-08 -7.34358e-08 -8.41794e-08 -8.1263e-08 -8.0807e-08 -8.95516e-08 -1.00561e-07 -9.71429e-08 -9.63417e-08 -1.04921e-07 -1.15845e-07 -1.11898e-07 -1.10401e-07 -1.18331e-07 -1.28623e-07 -1.24226e-07 -1.21745e-07 -1.28299e-07 -1.37282e-07 -1.32628e-07 -1.29247e-07 -1.3376e-07 -1.4071e-07 -1.35987e-07 -1.3224e-07 -1.34391e-07 -1.38544e-07 -1.33894e-07 -1.30509e-07 -1.30151e-07 -1.31053e-07 -1.26665e-07 -1.24192e-07 -1.21286e-07 -1.19285e-07 -1.15357e-07 -1.13899e-07 -1.08813e-07 -1.04836e-07 -1.0145e-07 -1.00735e-07 -9.42137e-08 -8.91283e-08 -8.62606e-08 -8.59431e-08 -7.87171e-08 -7.30642e-08 -7.06673e-08 -7.05065e-08 -6.30784e-08 -5.71306e-08 -5.51853e-08 -5.5032e-08 -4.77088e-08 -4.15954e-08 -4.01056e-08 -3.98563e-08 -3.28413e-08 -2.66412e-08 -2.56144e-08 -2.5182e-08 -1.86416e-08 -1.24357e-08 -1.18651e-08 -1.11819e-08 -5.26911e-09 8.33986e-10 9.83598e-10 1.93121e-09 7.09872e-09 1.29546e-08 1.2752e-08 1.3877e-08 1.8258e-08 2.36894e-08 2.32133e-08 2.4319e-08 2.79602e-08 3.27877e-08 3.20748e-08 3.29405e-08 3.58746e-08 4.00513e-08 3.89289e-08 3.95855e-08 4.17563e-08 6.55961e-08 7.24196e-08 5.25338e-08 5.63993e-08 6.02711e-08 5.75107e-08 5.21741e-08 4.75601e-08 4.54738e-08 4.35282e-08 4.22748e-08 4.11306e-08 4.03877e-08 3.97003e-08 3.9223e-08 3.87757e-08 3.84524e-08 3.81455e-08 3.79185e-08 3.77001e-08 3.75379e-08 3.73794e-08 3.72632e-08 3.71476e-08 3.70657e-08 3.69821e-08 3.69265e-08 3.68677e-08 3.68328e-08 3.67936e-08 3.67753e-08 3.6752e-08 3.67475e-08 3.67372e-08 3.67443e-08 3.6745e-08 3.67619e-08 3.67722e-08 3.67979e-08 3.68167e-08 3.68503e-08 3.6877e-08 3.69182e-08 3.69524e-08 3.70011e-08 3.70429e-08 3.70993e-08 3.7149e-08 3.72136e-08 3.72718e-08 3.73456e-08 3.74132e-08 3.74974e-08 3.75758e-08 3.7672e-08 3.7763e-08 3.78732e-08 3.7979e-08 3.81059e-08 3.82291e-08 3.83757e-08 3.85197e-08 3.86897e-08 3.88581e-08 3.90555e-08 3.92526e-08 3.94814e-08 3.97112e-08 3.99745e-08 4.02397e-08 4.0537e-08 4.08363e-08 4.11585e-08 4.14806e-08 4.17989e-08 4.21103e-08 4.2359e-08 4.25903e-08 4.26373e-08 4.26625e-08 4.23365e-08 4.19897e-08 4.11451e-08 4.61775e-08 4.25924e-08 4.02132e-08 3.8731e-08 3.77507e-08 3.70744e-08 3.65936e-08 3.62459e-08 3.59935e-08 3.58117e-08 3.56841e-08 3.55989e-08 3.55475e-08 3.55237e-08 3.55225e-08 3.55405e-08 3.55751e-08 3.56243e-08 3.5687e-08 3.57626e-08 3.5851e-08 3.59526e-08 3.60686e-08 3.62004e-08 3.63503e-08 3.65212e-08 3.67169e-08 3.69419e-08 3.72018e-08 3.75034e-08 3.78545e-08 3.8264e-08 3.87411e-08 3.92942e-08 3.99275e-08 4.06318e-08 4.13593e-08 4.1939e-08 4.18169e-08 5.23143e-08 5.23967e-08 4.83514e-08 4.50575e-08 4.32011e-08 4.16355e-08 4.0599e-08 3.96799e-08 3.90482e-08 3.84748e-08 3.80617e-08 3.76802e-08 3.73965e-08 3.71318e-08 3.69307e-08 3.67423e-08 3.65973e-08 3.64619e-08 3.63572e-08 3.62603e-08 3.61858e-08 3.61181e-08 3.60668e-08 3.60217e-08 3.59889e-08 3.59618e-08 3.59439e-08 3.59313e-08 3.59257e-08 3.59251e-08 3.59298e-08 3.59394e-08 3.59529e-08 3.59712e-08 3.59926e-08 3.60187e-08 3.60472e-08 3.60805e-08 3.61159e-08 3.6156e-08 3.61982e-08 3.62451e-08 3.62944e-08 3.63484e-08 3.64051e-08 3.64668e-08 3.6532e-08 3.66022e-08 3.66768e-08 3.67567e-08 3.68424e-08 3.69336e-08 3.70322e-08 3.71366e-08 3.72506e-08 3.73707e-08 3.7503e-08 3.76417e-08 3.77957e-08 3.79565e-08 3.81361e-08 3.83228e-08 3.85323e-08 3.8749e-08 3.89922e-08 3.92423e-08 3.95214e-08 3.9806e-08 4.01186e-08 4.04325e-08 4.07637e-08 4.10865e-08 4.13958e-08 4.16706e-08 4.18433e-08 4.19075e-08 4.17785e-08 4.13435e-08 4.02903e-08 5.47416e-08 4.6986e-08 4.28141e-08 4.05223e-08 3.91427e-08 3.82536e-08 3.76488e-08 3.72226e-08 3.69167e-08 3.66966e-08 3.65403e-08 3.64331e-08 3.63648e-08 3.63279e-08 3.63167e-08 3.63272e-08 3.63563e-08 3.64021e-08 3.64631e-08 3.65386e-08 3.66285e-08 3.67335e-08 3.68545e-08 3.69934e-08 3.71526e-08 3.73355e-08 3.7546e-08 3.77894e-08 3.80715e-08 3.83997e-08 3.87816e-08 3.92253e-08 3.97364e-08 4.03143e-08 4.09417e-08 4.15639e-08 4.20521e-08 4.21394e-08 4.13866e-08 2.78446e-08 2.38911e-08 2.47549e-08 2.55224e-08 2.62844e-08 2.69602e-08 2.76183e-08 2.81795e-08 2.87229e-08 2.91875e-08 2.96375e-08 3.00254e-08 3.04027e-08 3.07318e-08 3.10538e-08 3.13383e-08 3.16185e-08 3.18692e-08 3.21178e-08 3.23429e-08 3.25676e-08 3.27733e-08 3.298e-08 3.3171e-08 3.33641e-08 3.35439e-08 3.37267e-08 3.38981e-08 3.4073e-08 3.4238e-08 3.44069e-08 3.4567e-08 3.47313e-08 3.48876e-08 3.50484e-08 3.52017e-08 3.53597e-08 3.55106e-08 3.56664e-08 3.58153e-08 3.59692e-08 3.61165e-08 3.62687e-08 3.64145e-08 3.65652e-08 3.67095e-08 3.68587e-08 3.70015e-08 3.71491e-08 3.72901e-08 3.7436e-08 3.75749e-08 3.77185e-08 3.78549e-08 3.79956e-08 3.81285e-08 3.82655e-08 3.83938e-08 3.85256e-08 3.86473e-08 3.87717e-08 3.88842e-08 3.89981e-08 3.90971e-08 3.91956e-08 3.92744e-08 3.93497e-08 3.93975e-08 3.94372e-08 3.9435e-08 3.94178e-08 3.93298e-08 3.92165e-08 3.89678e-08 3.86781e-08 3.80951e-08 3.74488e-08 3.60902e-08 3.46381e-08 3.13056e-08 3.89109e-08 3.63088e-08 4.90135e-08 3.15465e-08 3.20507e-08 3.24466e-08 3.27681e-08 3.30581e-08 3.33358e-08 3.3611e-08 3.38878e-08 3.41679e-08 3.44517e-08 3.47387e-08 3.50285e-08 3.53206e-08 3.56143e-08 3.59093e-08 3.6205e-08 3.65012e-08 3.67976e-08 3.7094e-08 3.73902e-08 3.76862e-08 3.79819e-08 3.82774e-08 3.85728e-08 3.88684e-08 3.91646e-08 3.94621e-08 3.97618e-08 4.00656e-08 4.03759e-08 4.06968e-08 4.10346e-08 4.13995e-08 4.18075e-08 4.22847e-08 4.28735e-08 4.3645e-08 4.47246e-08 4.63479e-08 2.79734e-08 2.86586e-08 2.91524e-08 2.95842e-08 3.00082e-08 3.03956e-08 3.07448e-08 3.10632e-08 3.13618e-08 3.16348e-08 3.18961e-08 3.21352e-08 3.23693e-08 3.25837e-08 3.27976e-08 3.29938e-08 3.31928e-08 3.33756e-08 3.35636e-08 3.37364e-08 3.39161e-08 3.40815e-08 3.42551e-08 3.44149e-08 3.4584e-08 3.47396e-08 3.49052e-08 3.50577e-08 3.52205e-08 3.53706e-08 3.55314e-08 3.56796e-08 3.58388e-08 3.59854e-08 3.61433e-08 3.62887e-08 3.64455e-08 3.65898e-08 3.67457e-08 3.68892e-08 3.70442e-08 3.71868e-08 3.73411e-08 3.7483e-08 3.76365e-08 3.77777e-08 3.79305e-08 3.8071e-08 3.82231e-08 3.83629e-08 3.85142e-08 3.86532e-08 3.88038e-08 3.8942e-08 3.90917e-08 3.9229e-08 3.93778e-08 3.95142e-08 3.9662e-08 3.97974e-08 3.99442e-08 4.00786e-08 4.02244e-08 4.03577e-08 4.05022e-08 4.06344e-08 4.07769e-08 4.09074e-08 4.10452e-08 4.11714e-08 4.12948e-08 4.1407e-08 4.14838e-08 4.15497e-08 4.14782e-08 4.13947e-08 4.08561e-08 4.03e-08 3.83204e-08 2.62178e-08 2.75425e-08 2.86667e-08 2.9609e-08 3.04044e-08 3.10831e-08 3.16709e-08 3.21887e-08 3.2653e-08 3.30766e-08 3.34693e-08 3.38386e-08 3.41901e-08 3.45282e-08 3.4856e-08 3.5176e-08 3.54898e-08 3.57987e-08 3.61038e-08 3.64056e-08 3.67046e-08 3.7001e-08 3.72949e-08 3.75862e-08 3.78745e-08 3.81593e-08 3.84397e-08 3.87143e-08 3.89813e-08 3.92377e-08 3.94793e-08 3.96996e-08 3.98893e-08 4.00348e-08 4.01161e-08 4.01059e-08 3.99698e-08 3.96784e-08 3.92509e-08 1.40614e-08 9.49367e-09 4.28103e-09 -1.26761e-09 -7.25457e-09 -1.36485e-08 -1.91612e-08 -2.50236e-08 -2.97593e-08 -3.47667e-08 -3.89268e-08 -4.32689e-08 -4.72652e-08 -5.13546e-08 -5.55863e-08 -5.98349e-08 -6.45707e-08 -6.92575e-08 -7.45943e-08 -7.97994e-08 -8.5648e-08 -9.12252e-08 -9.73076e-08 -1.02878e-07 -1.0874e-07 -1.13737e-07 -1.18825e-07 -1.22639e-07 -1.26425e-07 -1.28604e-07 -1.30709e-07 -1.31043e-07 -1.31289e-07 -1.29754e-07 -1.28134e-07 -1.24876e-07 -1.21567e-07 -1.16945e-07 -1.12381e-07 -1.06911e-07 -1.01699e-07 -9.59365e-08 -9.06496e-08 -8.50573e-08 -8.00862e-08 -7.49522e-08 -7.04536e-08 -6.58734e-08 -6.17727e-08 -5.76505e-08 -5.36641e-08 -4.97225e-08 -4.54128e-08 -4.12241e-08 -3.61093e-08 -3.11886e-08 -2.49279e-08 -1.89096e-08 -1.15344e-08 -4.401e-09 3.303e-09 1.08929e-08 1.92432e-08 3.71569e-08 2.41677e-08 1.22207e-08 8.52721e-10 -1.04845e-08 -2.21816e-08 -3.4432e-08 -4.72976e-08 -6.07513e-08 -7.46572e-08 -8.86775e-08 -1.02152e-07 -1.14064e-07 -1.23246e-07 -1.28786e-07 -1.30248e-07 -1.27556e-07 -1.20851e-07 -1.10622e-07 -9.78103e-08 -8.35804e-08 -6.89328e-08 -5.45126e-08 -4.0659e-08 -2.75338e-08 -1.52147e-08 -3.7102e-09 7.09428e-09 1.75086e-08 2.79481e-08 3.84542e-08 3.15275e-08 2.59716e-08 2.05765e-08 1.46901e-08 8.83096e-09 2.57319e-09 -2.9809e-09 -8.88243e-09 -1.42074e-08 -1.97365e-08 -2.50936e-08 -3.04437e-08 -3.60465e-08 -4.14349e-08 -4.7391e-08 -5.29971e-08 -5.93158e-08 -6.5261e-08 -7.18538e-08 -7.81874e-08 -8.48305e-08 -9.1497e-08 -9.77724e-08 -1.04575e-07 -1.09847e-07 -1.16419e-07 -1.19957e-07 -1.25784e-07 -1.27043e-07 -1.31564e-07 -1.30416e-07 -1.33133e-07 -1.29814e-07 -1.30342e-07 -1.25269e-07 -1.23412e-07 -1.17102e-07 -1.13024e-07 -1.06044e-07 -1.00309e-07 -9.31667e-08 -8.65098e-08 -7.95612e-08 -7.26096e-08 -6.60436e-08 -5.92086e-08 -5.30791e-08 -4.65868e-08 -4.08523e-08 -3.48048e-08 -2.93633e-08 -2.37759e-08 -1.84809e-08 -1.32789e-08 -7.9628e-09 -2.97541e-09 2.46797e-09 7.42495e-09 1.28005e-08 1.76146e-08 2.16682e-08 2.4918e-08 2.74055e-08 2.17241e-08 5.82143e-09 -8.21627e-09 -2.04073e-08 -3.10413e-08 -4.07132e-08 -5.01313e-08 -5.99128e-08 -7.04425e-08 -8.18006e-08 -9.37156e-08 -1.05533e-07 -1.16246e-07 -1.24697e-07 -1.29899e-07 -1.31289e-07 -1.28724e-07 -1.22413e-07 -1.12971e-07 -1.0141e-07 -8.88921e-08 -7.64065e-08 -6.45899e-08 -5.37025e-08 -4.36657e-08 -3.41156e-08 -2.44876e-08 -1.41899e-08 -2.86709e-09 9.28726e-09 2.14247e-08 5.83604e-08 5.99882e-08 5.8048e-08 5.49923e-08 5.00656e-08 4.39196e-08 3.74276e-08 3.00557e-08 2.25585e-08 1.46652e-08 6.58835e-09 -1.47896e-09 -9.84211e-09 -1.79209e-08 -2.63577e-08 -3.43598e-08 -4.2702e-08 -5.05733e-08 -5.86642e-08 -6.63566e-08 -7.40175e-08 -8.14591e-08 -8.84541e-08 -9.55107e-08 -1.01517e-07 -1.07949e-07 -1.12559e-07 -1.18e-07 -1.208e-07 -1.24797e-07 -1.25503e-07 -1.27632e-07 -1.26202e-07 -1.262e-07 -1.22848e-07 -1.20711e-07 -1.15834e-07 -1.11811e-07 -1.05854e-07 -1.00347e-07 -9.36836e-08 -8.7101e-08 -7.99805e-08 -7.26536e-08 -6.52184e-08 -5.73893e-08 -4.97142e-08 -4.15624e-08 -3.36913e-08 -2.53668e-08 -1.73399e-08 -8.99375e-09 -8.70212e-10 7.31768e-09 1.54267e-08 2.32163e-08 3.1072e-08 3.81513e-08 4.5278e-08 5.13157e-08 5.66928e-08 6.11961e-08 6.35164e-08 3.61716e-08 2.13431e-08 7.41185e-09 -5.3145e-09 -1.70076e-08 -2.81222e-08 -3.91333e-08 -5.04063e-08 -6.21526e-08 -7.44162e-08 -8.70558e-08 -9.96976e-08 -1.11654e-07 -1.2188e-07 -1.29091e-07 -1.32159e-07 -1.30593e-07 -1.24761e-07 -1.15722e-07 -1.04746e-07 -9.29011e-08 -8.09047e-08 -6.91542e-08 -5.78001e-08 -4.67858e-08 -3.58482e-08 -2.45139e-08 -1.21447e-08 1.9079e-09 1.80798e-08 3.64983e-08 4.34702e-08 4.19544e-08 3.77308e-08 3.24753e-08 2.63389e-08 1.95772e-08 1.33056e-08 6.62213e-09 3.56155e-10 -6.06174e-09 -1.24431e-08 -1.86741e-08 -2.52583e-08 -3.14064e-08 -3.82132e-08 -4.43537e-08 -5.13662e-08 -5.75336e-08 -6.47092e-08 -7.0872e-08 -7.81292e-08 -8.41577e-08 -9.13466e-08 -9.69794e-08 -1.03842e-07 -1.08671e-07 -1.14814e-07 -1.18328e-07 -1.23246e-07 -1.24957e-07 -1.28145e-07 -1.27759e-07 -1.28872e-07 -1.26398e-07 -1.25375e-07 -1.21107e-07 -1.18203e-07 -1.12619e-07 -1.08306e-07 -1.01909e-07 -9.67009e-08 -8.98941e-08 -8.42088e-08 -7.72626e-08 -7.1372e-08 -6.4446e-08 -5.84846e-08 -5.16647e-08 -4.56607e-08 -3.89868e-08 -3.28895e-08 -2.63658e-08 -2.0064e-08 -1.36393e-08 -6.97085e-09 -4.93467e-10 6.72253e-09 1.35164e-08 2.13011e-08 2.85918e-08 3.6103e-08 4.31331e-08 4.81263e-08 5.36457e-08 4.2152e-08 2.96173e-08 1.65407e-08 3.02725e-09 -1.08876e-08 -2.51107e-08 -3.95269e-08 -5.40174e-08 -6.84307e-08 -8.25252e-08 -9.58963e-08 -1.07918e-07 -1.17744e-07 -1.24443e-07 -1.27256e-07 -1.25862e-07 -1.20484e-07 -1.11816e-07 -1.00772e-07 -8.82072e-08 -7.47678e-08 -6.08752e-08 -4.67778e-08 -3.26197e-08 -1.84918e-08 -4.44877e-09 9.53285e-09 2.36574e-08 3.837e-08 5.43431e-08 
</DataArray>
<DataArray Name="Warping_Y" format="ascii" type="Float64">