<?xml version="1.0"?>
<VTKFile byte_order="LittleEndian" type="UnstructuredGrid" version="0.1">
<UnstructuredGrid>
<Piece NumberOfCells="576" NumberOfPoints="2016">
<PointData>
<DataArray Name="Warping_X" format="ascii" type="Float64">
-3.68932e-09 5.3372e-09 -4.08468e-09 -4.25701e-09 -4.60286e-09 -4.69802e-09 -5.10863e-09 -5.24171e-09 -5.74398e-09 -5.97275e-09 -6.59004e-09 -6.95796e-09 -7.68552e-09 -8.1796e-09 -8.99093e-09 -9.55168e-09 -1.03998e-08 -1.09359e-08 -1.17561e-08 -1.21513e-08 -1.28646e-08 -1.29732e-08 -1.34889e-08 -1.31211e-08 -1.33415e-08 -1.22541e-08 -1.20777e-08 -1.00362e-08 -9.34666e-09 -6.35168e-09 -4.98126e-09 -1.53658e-09 7.06601e-10 3.80223e-09 6.89415e-09 9.13256e-09 1.25621e-08 1.39216e-08 1.68888e-08 1.75616e-08 1.9563e-08 1.97154e-08 2.07496e-08 2.04954e-08 2.07935e-08 2.02301e-08 2.0028e-08 1.92472e-08 1.87245e-08 1.78084e-08 1.7097e-08 1.61138e-08 1.53143e-08 1.43163e-08 1.35075e-08 1.25319e-08 1.17713e-08 1.0844e-08 1.01585e-08 9.29806e-09 8.66098e-09 7.86216e-09 7.24527e-09 6.51196e-09 5.86899e-09 8.81551e-09 5.04867e-09 6.00133e-09 5.97211e-09 -1.30022e-09 -1.64001e-09 -1.89216e-09 -1.70073e-09 -1.50129e-09 -1.43301e-09 -1.42225e-09 -1.63164e-09 -1.96974e-09 -2.43774e-09 -3.10745e-09 -3.72765e-09 -4.63201e-09 -5.26889e-09 -6.2908e-09 -6.82006e-09 -7.85895e-09 -8.17908e-09 -9.15807e-09 -9.17654e-09 -1.00291e-08 -9.6455e-09 -1.02955e-08 -9.39914e-09 -9.74191e-09 -8.23513e-09 -8.12367e-09 -5.9882e-09 -5.23999e-09 -2.63903e-09 -1.1081e-09 1.56598e-09 3.83635e-09 6.09806e-09 8.78117e-09 1.03048e-08 1.29144e-08 1.36573e-08 1.58012e-08 1.59093e-08 1.74252e-08 1.70809e-08 1.79885e-08 1.73388e-08 1.77378e-08 1.68876e-08 1.68912e-08 1.59171e-08 1.56285e-08 1.45976e-08 1.41117e-08 1.31016e-08 1.25237e-08 1.16364e-08 1.1096e-08 1.04489e-08 1.00813e-08 9.76723e-09 9.66118e-09 9.68601e-09 9.82027e-09 9.99727e-09 1.01402e-08 9.6089e-09 -3.47375e-09 -3.01996e-09 -2.33916e-09 -3.1214e-09 -3.87513e-09 -3.35115e-09 -2.27328e-09 -3.52275e-09 -4.27959e-09 -3.77416e-09 -2.47357e-09 -4.06949e-09 -4.79209e-09 -4.44095e-09 -2.85144e-09 -4.83127e-09 -5.51514e-09 -5.27357e-09 -3.5854e-09 -5.77552e-09 -6.48494e-09 -6.27886e-09 -4.67196e-09 -6.89051e-09 -7.6781e-09 -7.43782e-09 -6.01064e-09 -8.12865e-09 -9.00668e-09 -8.6861e-09 -7.45594e-09 -9.39829e-09 -1.03323e-08 -9.91156e-09 -8.84865e-09 -1.05659e-08 -1.14805e-08 -1.0961e-08 -1.00249e-08 -1.14619e-08 -1.22433e-08 -1.16465e-08 -1.08091e-08 -1.18813e-08 -1.23713e-08 -1.1744e-08 -1.09993e-08 -1.15818e-08 -1.15715e-08 -1.09939e-08 -1.03563e-08 -1.02919e-08 -9.54389e-09 -9.12083e-09 -8.61801e-09 -7.75858e-09 -6.12285e-09 -5.91967e-09 -5.57942e-09 -3.87655e-09 -1.49129e-09 -1.44665e-09 -1.27765e-09 1.10992e-09 3.80895e-09 3.81919e-09 3.8272e-09 6.52678e-09 9.10179e-09 9.07978e-09 8.92931e-09 1.15029e-08 1.37111e-08 1.35374e-08 1.32232e-08 1.53648e-08 1.7095e-08 1.67138e-08 1.62498e-08 1.78688e-08 1.907e-08 1.85525e-08 1.79724e-08 1.9119e-08 1.97986e-08 1.92567e-08 1.85957e-08 1.93658e-08 1.95743e-08 1.90982e-08 1.83808e-08 1.88763e-08 1.86794e-08 1.83311e-08 1.75648e-08 1.78862e-08 1.73476e-08 1.71714e-08 1.63463e-08 1.65913e-08 1.57668e-08 1.57957e-08 1.48938e-08 1.51466e-08 1.40891e-08 1.43387e-08 1.33573e-08 1.36601e-08 1.24329e-08 1.2879e-08 1.18714e-08 1.21817e-08 1.08734e-08 1.14308e-08 1.05464e-08 1.0709e-08 9.4282e-09 9.96644e-09 9.43926e-09 9.2208e-09 8.06662e-09 8.46616e-09 8.49501e-09 7.82588e-09 6.66492e-09 7.18634e-09 7.40389e-09 6.58575e-09 -5.61916e-09 -3.6368e-09 -3.60718e-09 -3.56845e-09 -3.54283e-09 -3.52441e-09 -3.51587e-09 -3.50693e-09 -3.50449e-09 -3.50193e-09 -3.50359e-09 -3.50597e-09 -3.51112e-09 -3.51772e-09 -3.52612e-09 -3.53627e-09 -3.54754e-09 -3.56058e-09 -3.57426e-09 -3.58962e-09 -3.60524e-09 -3.6224e-09 -3.63956e-09 -3.65811e-09 -3.67643e-09 -3.69602e-09 -3.71522e-09 -3.73556e-09 -3.75536e-09 -3.77621e-09 -3.7964e-09 -3.81754e-09 -3.83791e-09 -3.85915e-09 -3.87953e-09 -3.90068e-09 -3.92089e-09 -3.94178e-09 -3.96163e-09 -3.98208e-09 -4.0014e-09 -4.02121e-09 -4.0398e-09 -4.05876e-09 -4.07641e-09 -4.09428e-09 -4.11074e-09 -4.12726e-09 -4.14226e-09 -4.15713e-09 -4.17034e-09 -4.18322e-09 -4.19431e-09 -4.2048e-09 -4.21338e-09 -4.22107e-09 -4.22672e-09 -4.23114e-09 -4.23345e-09 -4.23412e-09 -4.2327e-09 -4.22917e-09 -4.22372e-09 -4.21559e-09 -4.206e-09 -4.19298e-09 -4.17944e-09 -4.16137e-09 -4.14447e-09 -4.12129e-09 -4.10207e-09 -4.07375e-09 -4.05371e-09 -4.02194e-09 -4.00419e-09 -3.98396e-09 -3.98559e-09 -4.07348e-09 -4.1945e-09 -4.84496e-09 -9.44633e-09 -8.64675e-09 -7.79565e-09 -7.40054e-09 -6.97196e-09 -6.7046e-09 -6.43541e-09 -6.2261e-09 -6.02676e-09 -5.85913e-09 -5.70432e-09 -5.56925e-09 -5.44592e-09 -5.33582e-09 -5.23547e-09 -5.14429e-09 -5.06091e-09 -4.98404e-09 -4.91335e-09 -4.84735e-09 -4.78628e-09 -4.72862e-09 -4.67494e-09 -4.62373e-09 -4.57577e-09 -4.5296e-09 -4.48613e-09 -4.4439e-09 -4.40397e-09 -4.36486e-09 -4.32773e-09 -4.29109e-09 -4.25616e-09 -4.22148e-09 -4.1883e-09 -4.15515e-09 -4.12334e-09 -4.09138e-09 -4.06064e-09 -4.02959e-09 -3.99964e-09 -3.96927e-09 -3.93989e-09 -3.90998e-09 -3.88097e-09 -3.85134e-09 -3.82253e-09 -3.793e-09 -3.7642e-09 -3.73461e-09 -3.70566e-09 -3.67584e-09 -3.64657e-09 -3.61634e-09 -3.58658e-09 -3.55577e-09 -3.52531e-09 -3.49372e-09 -3.46237e-09 -3.42978e-09 -3.39731e-09 -3.36352e-09 -3.32969e-09 -3.29448e-09 -3.25904e-09 -3.22225e-09 -3.18495e-09 -3.14652e-09 -3.10716e-09 -3.06719e-09 -3.02553e-09 -2.98403e-09 -2.93928e-09 -2.89412e-09 -2.84197e-09 -2.77851e-09 -2.69844e-09 -2.57422e-09 -2.39695e-09 -1.8897e-09 -3.20756e-09 -5.7197e-09 -3.80555e-09 -5.12105e-09 -3.91692e-09 -4.48411e-09 -4.90648e-09 -4.40857e-09 -4.0917e-09 -4.30986e-09 -5.21119e-09 -4.35521e-09 -4.16378e-09 -4.3777e-09 -5.2445e-09 -4.42571e-09 -4.21797e-09 -4.45521e-09 -5.18639e-09 -4.48702e-09 -4.26236e-09 -4.50499e-09 -5.09618e-09 -4.52065e-09 -4.29571e-09 -4.52658e-09 -4.99721e-09 -4.52994e-09 -4.31739e-09 -4.52665e-09 -4.89908e-09 -4.52127e-09 -4.32799e-09 -4.5114e-09 -4.80556e-09 -4.5e-09 -4.32876e-09 -4.48559e-09 -4.71778e-09 -4.47008e-09 -4.32104e-09 -4.45256e-09 -4.63571e-09 -4.43427e-09 -4.30617e-09 -4.41463e-09 -4.55882e-09 -4.39445e-09 -4.28532e-09 -4.37335e-09 -4.48643e-09 -4.35188e-09 -4.2595e-09 -4.32978e-09 -4.41787e-09 -4.30741e-09 -4.22958e-09 -4.28461e-09 -4.35249e-09 -4.26161e-09 -4.19627e-09 -4.2383e-09 -4.28975e-09 -4.21485e-09 -4.1602e-09 -4.19118e-09 -4.22915e-09 -4.16739e-09 -4.12186e-09 -4.14344e-09 -4.17028e-09 -4.1194e-09 -4.08168e-09 -4.09525e-09 -4.11279e-09 -4.07101e-09 -4.04004e-09 -4.0467e-09 -4.05637e-09 -4.02231e-09 -3.99723e-09 -3.99786e-09 -4.00075e-09 -3.97335e-09 -3.95354e-09 -3.9488e-09 -3.94572e-09 -3.92418e-09 -3.90921e-09 -3.89954e-09 -3.89106e-09 -3.87485e-09 -3.86446e-09 -3.85013e-09 -3.83657e-09 -3.82536e-09 -3.81951e-09 -3.80058e-09 -3.78208e-09 -3.77574e-09 -3.77456e-09 -3.7509e-09 -3.7274e-09 -3.72601e-09 -3.72985e-09 -3.70111e-09 -3.67233e-09 -3.67616e-09 -3.6856e-09 -3.6512e-09 -3.61668e-09 -3.62619e-09 -3.64207e-09 -3.60116e-09 -3.56019e-09 -3.57608e-09 -3.59958e-09 -3.55096e-09 -3.5026e-09 -3.52578e-09 -3.55847e-09 -3.50053e-09 -3.44354e-09 -3.47522e-09 -3.5192e-09 -3.4498e-09 -3.38254e-09 -3.42433e-09 -3.48234e-09 -3.39867e-09 -3.31893e-09 -3.37301e-09 -3.44865e-09 -3.34707e-09 -3.25164e-09 -3.32129e-09 -3.41922e-09 -3.29509e-09 -3.17887e-09 -3.26953e-09 -3.39563e-09 -3.24341e-09 -3.09732e-09 -3.21899e-09 -3.38021e-09 -3.19397e-09 -3.00094e-09 -3.1728e-09 -3.37592e-09 -3.15147e-09 -2.87918e-09 -3.13529e-09 -3.38618e-09 -3.12097e-09 -2.71826e-09 -3.11279e-09 -3.41044e-09 -3.11588e-09 -2.50537e-09 -3.05758e-09 2.34284e-08 2.10473e-09 2.38145e-08 2.31416e-08 2.01557e-08 1.75523e-08 1.62106e-08 1.47963e-08 1.36893e-08 1.2577e-08 1.17815e-08 1.09709e-08 1.03717e-08 9.76447e-09 9.30804e-09 8.8489e-09 8.49399e-09 8.1416e-09 7.85959e-09 7.58468e-09 7.35528e-09 7.1368e-09 6.94554e-09 6.76837e-09 6.60488e-09 6.45803e-09 6.31484e-09 6.19032e-09 6.06202e-09 5.954e-09 5.83663e-09 5.74082e-09 5.63151e-09 5.54474e-09 5.44136e-09 5.36129e-09 5.26227e-09 5.18714e-09 5.0913e-09 5.0198e-09 4.92625e-09 4.85737e-09 4.76543e-09 4.69839e-09 4.60749e-09 4.54168e-09 4.45135e-09 4.38624e-09 4.29606e-09 4.2312e-09 4.14075e-09 4.07569e-09 3.98453e-09 3.91884e-09 3.82646e-09 3.75966e-09 3.66546e-09 3.597e-09 3.50025e-09 3.4295e-09 3.32928e-09 3.25549e-09 3.15069e-09 3.07297e-09 2.9622e-09 2.87952e-09 2.76107e-09 2.67223e-09 2.54401e-09 2.4477e-09 2.30695e-09 2.20174e-09 2.04509e-09 1.93102e-09 1.75196e-09 1.63104e-09 1.43832e-09 1.3603e-09 1.13492e-09 1.16672e-09 1.26441e-09 2.68673e-08 1.87667e-08 1.83252e-08 1.75787e-09 8.95963e-09 9.02447e-09 8.86708e-09 8.68068e-09 8.52985e-09 8.36501e-09 8.20982e-09 8.05044e-09 7.90309e-09 7.7556e-09 7.61862e-09 7.48317e-09 7.35737e-09 7.23347e-09 7.11806e-09 7.00433e-09 6.89794e-09 6.79278e-09 6.6939e-09 6.59573e-09 6.50294e-09 6.41037e-09 6.32241e-09 6.23423e-09 6.15006e-09 6.06531e-09 5.98407e-09 5.90196e-09 5.82298e-09 5.7429e-09 5.66564e-09 5.58709e-09 5.51114e-09 5.43375e-09 5.35878e-09 5.28226e-09 5.20802e-09 5.13214e-09 5.05843e-09 4.98301e-09 4.90968e-09 4.83457e-09 4.76147e-09 4.68656e-09 4.61359e-09 4.53877e-09 4.46582e-09 4.39098e-09 4.31793e-09 4.24297e-09 4.16971e-09 4.09449e-09 4.02088e-09 3.94524e-09 3.87108e-09 3.79482e-09 3.71987e-09 3.6427e-09 3.56661e-09 3.48814e-09 3.41044e-09 3.3301e-09 3.25009e-09 3.16707e-09 3.08378e-09 2.9969e-09 2.90893e-09 2.81645e-09 2.72184e-09 2.62127e-09 2.51752e-09 2.40547e-09 2.29041e-09 2.16333e-09 2.04012e-09 1.89963e-09 1.79433e-09 1.66659e-09 1.72041e-09 1.02545e-09 2.56753e-10 2.83707e-10 8.17325e-10 1.18002e-09 1.06039e-09 1.29337e-09 1.35941e-09 1.43855e-09 1.57832e-09 1.68825e-09 1.73697e-09 1.74261e-09 1.87065e-09 1.99686e-09 2.00712e-09 2.02172e-09 2.12939e-09 2.25577e-09 2.25554e-09 2.27858e-09 2.36828e-09 2.48712e-09 2.48588e-09 2.51383e-09 2.5908e-09 2.69808e-09 2.70023e-09 2.73067e-09 2.79805e-09 2.89332e-09 2.90025e-09 2.93214e-09 2.99207e-09 3.07642e-09 3.08824e-09 3.12115e-09 3.17518e-09 3.25024e-09 3.26652e-09 3.30023e-09 3.34962e-09 3.41704e-09 3.43719e-09 3.47159e-09 3.51732e-09 3.5786e-09 3.60201e-09 3.63704e-09 3.6799e-09 3.73628e-09 3.76243e-09 3.7981e-09 3.83868e-09 3.89113e-09 3.91965e-09 3.95601e-09 3.99475e-09 4.04399e-09 4.07463e-09 4.11179e-09 4.14898e-09 4.19551e-09 4.22818e-09 4.26634e-09 4.30214e-09 4.34624e-09 4.38101e-09 4.42045e-09 4.4549e-09 4.49665e-09 4.53376e-09 4.57488e-09 4.60791e-09 4.64718e-09 4.68707e-09 4.73044e-09 4.76184e-09 4.79829e-09 4.84164e-09 4.888e-09 4.91741e-09 4.95047e-09 4.99827e-09 5.04861e-09 5.07552e-09 5.1043e-09 5.15791e-09 5.2136e-09 5.23725e-09 5.26049e-09 5.32179e-09 5.38465e-09 5.40401e-09 5.41996e-09 5.49151e-09 5.56399e-09 5.57765e-09 5.58391e-09 5.66917e-09 5.75458e-09 5.76062e-09 5.7539e-09 5.85759e-09 5.96041e-09 5.95622e-09 5.93205e-09 6.06057e-09 6.18686e-09 6.16889e-09 6.12114e-09 6.28321e-09 6.44125e-09 6.40465e-09 6.32493e-09 6.5325e-09 6.7336e-09 6.67172e-09 6.54846e-09 6.81792e-09 7.07763e-09 6.98129e-09 6.79852e-09 7.15249e-09 7.49226e-09 7.34879e-09 7.08426e-09 7.55412e-09 8.00373e-09 7.79546e-09 7.41803e-09 8.04759e-09 8.6486e-09 8.35083e-09 7.81652e-09 8.66747e-09 9.4782e-09 9.05628e-09 8.30241e-09 9.46225e-09 1.05648e-08 9.96995e-09 8.90658e-09 1.05005e-08 1.2013e-08 1.11754e-08 9.67154e-09 1.18846e-08 1.3959e-08 1.27958e-08 1.06521e-08 1.37222e-08 1.66926e-08 1.49567e-08 1.19509e-08 1.64547e-08 2.0042e-08 1.82815e-08 1.35317e-08 1.81768e-08 -1.92489e-08 -1.84107e-08 -1.65921e-08 -1.45474e-08 -1.22845e-08 -1.04753e-08 -8.37204e-09 -6.793e-09 -4.79037e-09 -3.47311e-09 -1.55838e-09 -4.84503e-10 1.36788e-09 2.18134e-09 3.97916e-09 4.49213e-09 6.23254e-09 6.38815e-09 8.05882e-09 7.77548e-09 9.3505e-09 8.50996e-09 9.93818e-09 8.39411e-09 9.57685e-09 7.20148e-09 7.95446e-09 4.79074e-09 4.82734e-09 1.27982e-09 2.87764e-10 -2.93138e-09 -5.10287e-09 -7.37179e-09 -1.05127e-08 -1.16069e-08 -1.51087e-08 -1.51689e-08 -1.83239e-08 -1.76586e-08 -2.00577e-08 -1.8955e-08 -2.05493e-08 -1.91982e-08 -2.01134e-08 -1.86186e-08 -1.90041e-08 -1.74245e-08 -1.74067e-08 -1.57784e-08 -1.54509e-08 -1.38004e-08 -1.3233e-08 -1.15832e-08 -1.08312e-08 -9.20351e-09 -8.30967e-09 -6.7263e-09 -5.72091e-09 -4.20233e-09 -3.09771e-09 -1.70368e-09 -5.4474e-10 7.84519e-10 -7.92773e-09 -6.3756e-09 -5.03893e-09 -3.92291e-09 -2.75843e-09 -1.93768e-09 -8.48653e-10 -1.39435e-10 9.44713e-10 1.64797e-09 2.75612e-09 3.47381e-09 4.60498e-09 5.29796e-09 6.43193e-09 7.02153e-09 8.12287e-09 8.49487e-09 9.51253e-09 9.51561e-09 1.03785e-08 9.82581e-09 1.04354e-08 9.13234e-09 9.34978e-09 7.19332e-09 6.82928e-09 3.96646e-09 2.81875e-09 -2.99808e-10 -2.32361e-09 -5.13559e-09 -7.88942e-09 -9.97822e-09 -1.30529e-08 -1.42652e-08 -1.7103e-08 -1.75257e-08 -1.96741e-08 -1.95064e-08 -2.0811e-08 -2.02412e-08 -2.07962e-08 -1.99631e-08 -1.99546e-08 -1.89556e-08 -1.85611e-08 -1.74645e-08 -1.68243e-08 -1.56763e-08 -1.48924e-08 -1.37214e-08 -1.2862e-08 -1.168e-08 -1.07796e-08 -9.58035e-09 -8.62668e-09 -7.37922e-09 -6.293e-09 -4.93164e-09 -3.55252e-09 -1.97325e-09 -1.4419e-10 -1.97804e-08 -1.62289e-08 -1.44551e-08 -1.46333e-08 -1.52355e-08 -1.32419e-08 -1.0186e-08 -1.14873e-08 -1.13986e-08 -9.87098e-09 -6.95573e-09 -8.10647e-09 -7.76189e-09 -6.55262e-09 -4.27027e-09 -4.87054e-09 -4.40291e-09 -3.45081e-09 -1.86971e-09 -1.88859e-09 -1.32614e-09 -6.30214e-10 3.90192e-10 8.15352e-10 1.46409e-09 1.92192e-09 2.56661e-09 3.26073e-09 3.96337e-09 4.22434e-09 4.64263e-09 5.44638e-09 6.14056e-09 6.25479e-09 6.54397e-09 7.32166e-09 7.92397e-09 7.93495e-09 8.14747e-09 8.77918e-09 9.192e-09 9.129e-09 9.27959e-09 9.65083e-09 9.76197e-09 9.64099e-09 9.71219e-09 9.70326e-09 9.38328e-09 9.21677e-09 9.17065e-09 8.64975e-09 7.75934e-09 7.57356e-09 7.38956e-09 6.22925e-09 4.66946e-09 4.5091e-09 4.24509e-09 2.39989e-09 2.00402e-10 1.06786e-10 -9.26336e-11 -2.48793e-09 -5.11442e-09 -5.12473e-09 -5.12974e-09 -7.77002e-09 -1.04476e-08 -1.03733e-08 -1.01787e-08 -1.2688e-08 -1.497e-08 -1.48245e-08 -1.45512e-08 -1.65761e-08 -1.81421e-08 -1.79634e-08 -1.77495e-08 -1.90784e-08 -1.98693e-08 -1.96988e-08 -1.95974e-08 -2.02296e-08 -2.03678e-08 -2.02278e-08 -2.02117e-08 -2.02871e-08 -1.99353e-08 -1.98327e-08 -1.98526e-08 -1.95386e-08 -1.88291e-08 -1.87713e-08 -1.87907e-08 -1.82232e-08 -1.72441e-08 -1.72478e-08 -1.72499e-08 -1.65203e-08 -1.53207e-08 -1.54123e-08 -1.53992e-08 -1.45562e-08 -1.31581e-08 -1.33676e-08 -1.33593e-08 -1.24117e-08 -1.08247e-08 -1.11738e-08 -1.12106e-08 -1.01296e-08 -8.37107e-09 -8.8577e-09 -8.99578e-09 -7.7307e-09 -5.84836e-09 -6.43949e-09 -6.7199e-09 -5.24978e-09 -3.34183e-09 -3.97853e-09 -4.36084e-09 -2.82124e-09 -9.68334e-10 -1.71049e-09 -1.88134e-09 -5.90033e-10 -5.66892e-09 -7.77435e-09 -3.1238e-09 -4.32163e-09 -4.99353e-09 -5.04435e-09 -4.19923e-09 -3.50257e-09 -3.32242e-09 -3.1552e-09 -3.08609e-09 -3.03053e-09 -3.02773e-09 -3.03008e-09 -3.05261e-09 -3.07701e-09 -3.10927e-09 -3.142e-09 -3.17729e-09 -3.21252e-09 -3.24811e-09 -3.28344e-09 -3.31828e-09 -3.3528e-09 -3.38657e-09 -3.42005e-09 -3.45275e-09 -3.48521e-09 -3.51699e-09 -3.54858e-09 -3.57964e-09 -3.61055e-09 -3.64109e-09 -3.67154e-09 -3.70175e-09 -3.73194e-09 -3.76205e-09 -3.79218e-09 -3.82239e-09 -3.85268e-09 -3.88321e-09 -3.91387e-09 -3.94494e-09 -3.97621e-09 -4.00809e-09 -4.04023e-09 -4.07319e-09 -4.10651e-09 -4.14091e-09 -4.17575e-09 -4.21199e-09 -4.24879e-09 -4.28738e-09 -4.32666e-09 -4.36822e-09 -4.41066e-09 -4.45599e-09 -4.50244e-09 -4.5526e-09 -4.60417e-09 -4.66058e-09 -4.71882e-09 -4.78347e-09 -4.85052e-09 -4.92631e-09 -5.00535e-09 -5.09679e-09 -5.19277e-09 -5.30725e-09 -5.42835e-09 -5.57877e-09 -5.73938e-09 -5.94953e-09 -6.17624e-09 -6.4922e-09 -6.83645e-09 -7.34987e-09 -7.91527e-09 -8.81664e-09 -9.83004e-09 -1.16254e-08 -1.37621e-08 -1.65534e-08 -3.25664e-09 -3.07586e-09 -2.98167e-09 -2.98802e-09 -3.03714e-09 -3.1034e-09 -3.17507e-09 -3.24706e-09 -3.31735e-09 -3.38531e-09 -3.45095e-09 -3.51455e-09 -3.57646e-09 -3.63707e-09 -3.69675e-09 -3.75588e-09 -3.8148e-09 -3.87389e-09 -3.93351e-09 -3.99406e-09 -4.05598e-09 -4.11978e-09 -4.18605e-09 -4.25551e-09 -4.32902e-09 -4.40768e-09 -4.49286e-09 -4.58636e-09 -4.69054e-09 -4.80862e-09 -4.94512e-09 -5.10661e-09 -5.3031e-09 -5.55059e-09 -5.87601e-09 -6.32731e-09 -6.99291e-09 -8.04318e-09 -9.89479e-09 -3.75915e-09 -4.4228e-09 -3.81805e-09 -3.38275e-09 -3.20969e-09 -3.0955e-09 -3.05016e-09 -3.02526e-09 -3.03065e-09 -3.04455e-09 -3.06986e-09 -3.09866e-09 -3.13151e-09 -3.16563e-09 -3.20071e-09 -3.23608e-09 -3.27118e-09 -3.30615e-09 -3.34044e-09 -3.37443e-09 -3.40769e-09 -3.44057e-09 -3.47284e-09 -3.50471e-09 -3.53613e-09 -3.56714e-09 -3.5979e-09 -3.62825e-09 -3.65853e-09 -3.68841e-09 -3.7184e-09 -3.74801e-09 -3.7779e-09 -3.80743e-09 -3.83741e-09 -3.86703e-09 -3.8973e-09 -3.92723e-09 -3.958e-09 -3.98844e-09 -4.01994e-09 -4.05113e-09 -4.08363e-09 -4.11584e-09 -4.14965e-09 -4.18321e-09 -4.2187e-09 -4.25399e-09 -4.29163e-09 -4.32911e-09 -4.36949e-09 -4.40976e-09 -4.4536e-09 -4.49742e-09 -4.54569e-09 -4.59404e-09 -4.64803e-09 -4.70226e-09 -4.76374e-09 -4.8257e-09 -4.89723e-09 -4.96964e-09 -5.05505e-09 -5.14206e-09 -5.24739e-09 -5.35571e-09 -5.49115e-09 -5.63227e-09 -5.81584e-09 -6.01064e-09 -6.27619e-09 -6.56489e-09 -6.97728e-09 -7.43924e-09 -8.12034e-09 -8.8992e-09 -1.00904e-08 -1.13907e-08 -1.37586e-08 -4.61947e-09 -3.57834e-09 -3.16231e-09 -3.04464e-09 -3.04372e-09 -3.09013e-09 -3.15436e-09 -3.22412e-09 -3.29435e-09 -3.3631e-09 -3.4298e-09 -3.4945e-09 -3.55746e-09 -3.61906e-09 -3.67969e-09 -3.73976e-09 -3.79965e-09 -3.85977e-09 -3.92053e-09 -3.98238e-09 -4.04582e-09 -4.11142e-09 -4.17985e-09 -4.25191e-09 -4.3286e-09 -4.41117e-09 -4.50121e-09 -4.60083e-09 -4.71287e-09 -4.84133e-09 -4.99208e-09 -5.17423e-09 -5.4027e-09 -5.70356e-09 -6.12476e-09 -6.75886e-09 -7.79001e-09 -9.60171e-09 -1.2951e-08 4.79263e-09 5.31921e-09 5.35841e-09 5.47704e-09 5.59515e-09 5.7255e-09 5.85183e-09 5.95846e-09 6.05944e-09 6.13565e-09 6.20587e-09 6.25305e-09 6.2945e-09 6.31665e-09 6.33366e-09 6.33514e-09 6.33219e-09 6.31702e-09 6.29814e-09 6.26979e-09 6.23838e-09 6.1997e-09 6.15852e-09 6.11183e-09 6.06311e-09 6.01024e-09 5.95573e-09 5.89812e-09 5.83919e-09 5.77796e-09 5.71567e-09 5.6517e-09 5.58686e-09 5.52082e-09 5.45406e-09 5.38647e-09 5.31827e-09 5.24953e-09 5.18027e-09 5.11068e-09 5.04065e-09 4.97047e-09 4.89991e-09 4.82934e-09 4.75845e-09 4.68766e-09 4.6166e-09 4.54577e-09 4.47471e-09 4.404e-09 4.33311e-09 4.2627e-09 4.19217e-09 4.12228e-09 4.05236e-09 3.98326e-09 3.91424e-09 3.84631e-09 3.7786e-09 3.71233e-09 3.64646e-09 3.58253e-09 3.51927e-09 3.45864e-09 3.39906e-09 3.34309e-09 3.28872e-09 3.23947e-09 3.19257e-09 3.15332e-09 3.11747e-09 3.09407e-09 3.07555e-09 3.08009e-09 3.09154e-09 3.15312e-09 3.22476e-09 3.42113e-09 3.63242e-09 4.19622e-09 3.02602e-09 3.6516e-09 1.11303e-09 6.76245e-09 7.08499e-09 7.20531e-09 7.20562e-09 7.13832e-09 7.03248e-09 6.90516e-09 6.76621e-09 6.62128e-09 6.47354e-09 6.32472e-09 6.17573e-09 6.02699e-09 5.87868e-09 5.73084e-09 5.58345e-09 5.43643e-09 5.28972e-09 5.14326e-09 4.99697e-09 4.85081e-09 4.70472e-09 4.55865e-09 4.41252e-09 4.26628e-09 4.11981e-09 3.97301e-09 3.82567e-09 3.67752e-09 3.52814e-09 3.37689e-09 3.22278e-09 3.06423e-09 2.89874e-09 2.72224e-09 2.52791e-09 2.30398e-09 2.02925e-09 1.66191e-09 6.13565e-09 6.28352e-09 6.36355e-09 6.42731e-09 6.50484e-09 6.56917e-09 6.61759e-09 6.65482e-09 6.67518e-09 6.68702e-09 6.68387e-09 6.67437e-09 6.65312e-09 6.62727e-09 6.59246e-09 6.55439e-09 6.50954e-09 6.46243e-09 6.41021e-09 6.35646e-09 6.29881e-09 6.24018e-09 6.17854e-09 6.11632e-09 6.05175e-09 5.9869e-09 5.92016e-09 5.85336e-09 5.78502e-09 5.71678e-09 5.64727e-09 5.57797e-09 5.50758e-09 5.4375e-09 5.36647e-09 5.29581e-09 5.22431e-09 5.15324e-09 5.08139e-09 5.01002e-09 4.93794e-09 4.86635e-09 4.79411e-09 4.72239e-09 4.65006e-09 4.57826e-09 4.5059e-09 4.43409e-09 4.36175e-09 4.28998e-09 4.21773e-09 4.14606e-09 4.07395e-09 4.00244e-09 3.93055e-09 3.8593e-09 3.78772e-09 3.71681e-09 3.64567e-09 3.57523e-09 3.50466e-09 3.43486e-09 3.3651e-09 3.29618e-09 3.22753e-09 3.15986e-09 3.09292e-09 3.02713e-09 2.96309e-09 2.90053e-09 2.84228e-09 2.78608e-09 2.74135e-09 2.69973e-09 2.69078e-09 2.68669e-09 2.77854e-09 2.8781e-09 3.25899e-09 5.50876e-09 5.82856e-09 6.07036e-09 6.24049e-09 6.34841e-09 6.40342e-09 6.41479e-09 6.39094e-09 6.33914e-09 6.26541e-09 6.17468e-09 6.07083e-09 5.95695e-09 5.83541e-09 5.70806e-09 5.57633e-09 5.44129e-09 5.30378e-09 5.16445e-09 5.0238e-09 4.88223e-09 4.74007e-09 4.5976e-09 4.4551e-09 4.31283e-09 4.17111e-09 4.0303e-09 3.89087e-09 3.75343e-09 3.61881e-09 3.48817e-09 3.36309e-09 3.24585e-09 3.13963e-09 3.04893e-09 2.97992e-09 2.94061e-09 2.93945e-09 2.9781e-09 -6.61705e-09 -7.70452e-09 -8.26493e-09 -8.73019e-09 -8.84226e-09 -8.92948e-09 -8.55134e-09 -8.18736e-09 -7.39667e-09 -6.64078e-09 -5.55696e-09 -4.52114e-09 -3.28346e-09 -2.10676e-09 -8.50795e-10 3.25394e-10 1.47711e-09 2.51947e-09 3.45203e-09 4.23179e-09 4.82872e-09 5.21579e-09 5.36003e-09 5.23163e-09 4.8284e-09 4.10379e-09 3.12146e-09 1.81518e-09 3.2091e-10 -1.42286e-09 -3.25807e-09 -5.19196e-09 -7.11993e-09 -8.96353e-09 -1.07048e-08 -1.22088e-08 -1.35155e-08 -1.45071e-08 -1.52321e-08 -1.56408e-08 -1.57642e-08 -1.56168e-08 -1.52122e-08 -1.4597e-08 -1.37783e-08 -1.28035e-08 -1.1688e-08 -1.04574e-08 -9.15606e-09 -7.76614e-09 -6.3891e-09 -4.93787e-09 -3.59991e-09 -2.19421e-09 -1.0072e-09 2.43677e-10 1.19358e-09 2.20012e-09 2.88563e-09 3.60841e-09 4.13413e-09 4.64577e-09 4.7519e-09 -4.61371e-10 -2.05943e-09 -4.05901e-09 -6.31487e-09 -8.69187e-09 -1.10701e-08 -1.33458e-08 -1.54126e-08 -1.71408e-08 -1.83584e-08 -1.88437e-08 -1.83427e-08 -1.66415e-08 -1.36917e-08 -9.7077e-09 -5.14547e-09 -5.89399e-10 3.37645e-09 6.29856e-09 7.9687e-09 8.44431e-09 7.94954e-09 6.75024e-09 5.08348e-09 3.14237e-09 1.08568e-09 -9.42649e-10 -2.79189e-09 -4.28896e-09 -5.22593e-09 -5.28314e-09 2.76795e-09 1.94807e-09 8.60061e-10 -1.51125e-10 -1.18618e-09 -2.15271e-09 -3.29229e-09 -4.36003e-09 -5.5908e-09 -6.76045e-09 -8.01973e-09 -9.24236e-09 -1.04598e-08 -1.16719e-08 -1.27789e-08 -1.39138e-08 -1.48364e-08 -1.58231e-08 -1.64689e-08 -1.72257e-08 -1.74778e-08 -1.79071e-08 -1.76316e-08 -1.76208e-08 -1.6707e-08 -1.61464e-08 -1.45821e-08 -1.34072e-08 -1.13417e-08 -9.58899e-09 -7.31357e-09 -5.15312e-09 -3.00533e-09 -7.23096e-10 1.01288e-09 3.07824e-09 4.23504e-09 5.79317e-09 6.33784e-09 7.24331e-09 7.24476e-09 7.51545e-09 7.08838e-09 6.84139e-09 6.10448e-09 5.48121e-09 4.54042e-09 3.66757e-09 2.6166e-09 1.59987e-09 5.26036e-10 -5.42297e-10 -1.55122e-09 -2.57898e-09 -3.4347e-09 -4.32316e-09 -4.9514e-09 -5.60876e-09 -5.9828e-09 -6.36486e-09 -6.58257e-09 -6.78342e-09 -6.32519e-09 2.75691e-09 1.84481e-09 3.07564e-10 -1.72506e-09 -4.13167e-09 -6.75151e-09 -9.40097e-09 -1.18927e-08 -1.40414e-08 -1.56511e-08 -1.65042e-08 -1.63744e-08 -1.50868e-08 -1.26166e-08 -9.16988e-09 -5.17399e-09 -1.18177e-09 2.25442e-09 4.70995e-09 5.98562e-09 6.1164e-09 5.28999e-09 3.7492e-09 1.73497e-09 -5.24156e-10 -2.79935e-09 -4.85091e-09 -6.43722e-09 -7.33238e-09 -7.32159e-09 -6.08807e-09 2.36003e-08 2.34604e-08 2.32399e-08 2.30404e-08 2.28802e-08 2.25739e-08 2.24026e-08 2.21331e-08 2.19452e-08 2.17666e-08 2.15994e-08 2.15252e-08 2.13912e-08 2.13941e-08 2.12713e-08 2.12986e-08 2.11349e-08 2.11167e-08 2.08344e-08 2.0686e-08 2.01878e-08 1.9813e-08 1.89931e-08 1.82897e-08 1.70546e-08 1.59302e-08 1.42349e-08 1.26379e-08 1.05312e-08 8.49569e-09 6.15021e-09 3.83185e-09 1.51308e-09 -8.30695e-10 -2.86542e-09 -4.96898e-09 -6.56394e-09 -8.25448e-09 -9.37496e-09 -1.06031e-08 -1.12997e-08 -1.2109e-08 -1.24725e-08 -1.29545e-08 -1.30842e-08 -1.33412e-08 -1.33288e-08 -1.34532e-08 -1.33759e-08 -1.34366e-08 -1.33513e-08 -1.3385e-08 -1.33208e-08 -1.33225e-08 -1.32661e-08 -1.31761e-08 -1.30417e-08 -1.27353e-08 -1.23409e-08 -1.1668e-08 -1.05824e-08 -9.22852e-09 -7.43184e-09 1.45655e-08 1.29228e-08 1.23443e-08 1.25237e-08 1.32693e-08 1.43602e-08 1.55724e-08 1.67089e-08 1.76051e-08 1.81054e-08 1.80366e-08 1.71994e-08 1.53888e-08 1.24646e-08 8.48416e-09 3.83399e-09 -8.15066e-10 -4.7921e-09 -7.71032e-09 -9.51133e-09 -1.03337e-08 -1.03799e-08 -9.84522e-09 -8.89695e-09 -7.68269e-09 -6.3541e-09 -5.08693e-09 -4.0729e-09 -3.47749e-09 -3.38428e-09 -3.80089e-09 1.79126e-08 1.71772e-08 1.67545e-08 1.63117e-08 1.60526e-08 1.57343e-08 1.57872e-08 1.57426e-08 1.60028e-08 1.61781e-08 1.65377e-08 1.68478e-08 1.72294e-08 1.75857e-08 1.79334e-08 1.82517e-08 1.85134e-08 1.87125e-08 1.88266e-08 1.88207e-08 1.87099e-08 1.84043e-08 1.7976e-08 1.7272e-08 1.64285e-08 1.52453e-08 1.39122e-08 1.22288e-08 1.04049e-08 8.30889e-09 6.12249e-09 3.83215e-09 1.54312e-09 -6.43016e-10 -2.73653e-09 -4.55834e-09 -6.23826e-09 -7.56719e-09 -8.74541e-09 -9.58223e-09 -1.02788e-08 -1.06971e-08 -1.09911e-08 -1.10869e-08 -1.10745e-08 -1.09379e-08 -1.071e-08 -1.04137e-08 -1.00502e-08 -9.648e-09 -9.2199e-09 -8.75025e-09 -8.32321e-09 -7.81907e-09 -7.45215e-09 -6.95439e-09 -6.69031e-09 -6.25367e-09 -6.08354e-09 -5.74101e-09 -5.3955e-09 -4.91683e-09 -4.04437e-09 2.15148e-08 1.92516e-08 1.84334e-08 1.82992e-08 1.84896e-08 1.8834e-08 1.9227e-08 1.95689e-08 1.97421e-08 1.96009e-08 1.89702e-08 1.76567e-08 1.54832e-08 1.23567e-08 8.36151e-09 3.83182e-09 -6.96331e-10 -4.68692e-09 -7.80564e-09 -9.96696e-09 -1.12618e-08 -1.18638e-08 -1.19602e-08 -1.17168e-08 -1.12631e-08 -1.06889e-08 -1.00445e-08 -9.35368e-09 -8.6491e-09 -8.01621e-09 -7.67714e-09 
</DataArray>
<DataArray Name="Warping_Y" format="ascii" type="Float64">