<?xml version="1.0"?>
<VTKFile byte_order="LittleEndian" type="UnstructuredGrid" version="0.1">
<UnstructuredGrid>
<Piece NumberOfCells="476" NumberOfPoints="552">
<PointData>
</PointData>
<CellData>
<DataArray Name="MaterialId" format="ascii" type="Float64">
3 3 3 3 3 3 3 3 3 3 3 3 3 3 3 3 3 3 3 3 3 3 3 3 3 3 3 3 3 3 3 3 3 3 4 4 4 4 4 4 4 4 4 4 4 4 4 4 4 4 4 4 4 4 4 4 4 4 4 4 4 4 4 4 4 4 4 4 2 2 2 2 2 2 2 2 2 2 2 2 2 2 2 2 2 2 2 2 2 2 2 2 2 2 2 2 2 2 2 2 2 2 2 2 2 2 2 2 2 2 2 2 1 1 1 1 1 1 1 1 1 1 2 2 2 2 2 2 2 2 2 2 2 2 2 2 2 2 2 2 2 2 2 2 2 2 5 5 5 5 5 5 5 5 5 5 5 5 5 5 5 5 5 5 5 5 5 5 5 5 2 2 2 2 2 2 2 2 2 2 1 1 1 1 1 1 1 1 1 1 2 2 2 2 2 2 2 2 2 2 2 2 2 2 2 2 2 2 2 2 2 2 2 2 2 2 2 2 2 2 2 2 2 2 2 2 2 2 2 2 2 2 2 2 2 2 2 2 3 3 3 3 3 3 3 3 3 3 3 3 3 3 3 3 3 3 3 3 3 3 3 3 3 3 3 3 3 3 3 3 3 3 4 4 4 4 4 4 4 4 4 4 4 4 4 4 4 4 4 4 4 4 4 4 4 4 4 4 4 4 4 4 4 4 4 4 2 2 2 2 2 2 2 2 2 2 2 2 2 2 2 2 2 2 2 2 2 2 2 2 2 2 2 2 2 2 2 2 2 2 2 2 2 2 2 2 2 2 2 2 1 1 1 1 1 1 1 1 1 1 2 2 2 2 2 2 2 2 2 2 2 2 2 2 2 2 2 2 2 2 2 2 2 2 5 5 5 5 5 5 5 5 5 5 5 5 5 5 5 5 5 5 5 5 5 5 5 5 2 2 2 2 2 2 2 2 2 2 1 1 1 1 1 1 1 1 1 1 2 2 2 2 2 2 2 2 2 2 2 2 2 2 2 2 2 2 2 2 2 2 2 2 2 2 2 2 2 2 2 2 2 2 2 2 2 2 2 2 2 2 2 2 2 2 2 2 
</DataArray>
<DataArray Name="FiberAngle" format="ascii" type="Float64">
0 0 0 0 0 0 0 0 0 0 0 0 0 0 0 0 0 0 0 0 0 0 0 0 0 0 0 0 0 0 0 0 0 0 0 0 0 0 0 0 0 0 0 0 0 0 0 0 0 0 0 0 0 0 0 0 0 0 0 0 0 0 0 0 0 0 0 0 20 20 20 20 20 20 20 20 20 20 20 20 20 20 20 20 20 20 20 20 20 20 20 20 20 20 20 20 20 20 20 20 20 20 20 20 20 20 20 20 20 20 20 20 30 30 30 30 30 30 30 30 30 30 20 20 20 20 20 20 20 20 20 20 20 20 20 20 20 20 20 20 20 20 20 20 20 20 0 0 0 0 0 0 0 0 0 0 0 0 0 0 0 0 0 0 0 0 0 0 0 0 20 20 20 20 20 20 20 20 20 20 30 30 30 30 30 30 30 30 30 30 0 0 0 0 0 0 0 0 0 0 0 0 0 0 20 20 20 20 20 20 20 20 20 20 20 20 20 20 20 20 20 20 20 20 0 0 0 0 0 0 0 0 0 0 0 0 0 0 0 0 0 0 0 0 0 0 0 0 0 0 0 0 0 0 0 0 0 0 0 0 0 0 0 0 0 0 0 0 0 0 0 0 0 0 0 0 0 0 0 0 0 0 0 0 0 0 0 0 0 0 0 0 0 0 0 0 0 0 0 0 0 0 0 0 0 0 20 20 20 20 20 20 20 20 20 20 20 20 20 20 20 20 20 20 20 20 20 20 20 20 20 20 20 20 20 20 20 20 20 20 20 20 20 20 20 20 20 20 20 20 30 30 30 30 30 30 30 30 30 30 20 20 20 20 20 20 20 20 20 20 20 20 20 20 20 20 20 20 20 20 20 20 20 20 0 0 0 0 0 0 0 0 0 0 0 0 0 0 0 0 0 0 0 0 0 0 0 0 20 20 20 20 20 20 20 20 20 20 30 30 30 30 30 30 30 30 30 30 0 0 0 0 0 0 0 0 0 0 0 0 0 0 20 20 20 20 20 20 20 20 20 20 20 20 20 20 20 20 20 20 20 20 0 0 0 0 0 0 0 0 0 0 0 0 0 0 
</DataArray>
</CellData>
<Points>
<DataArray NumberOfComponents="3" format="ascii" type="Float64">
0 0 0 0.00077024 0.022576 0 0.0027224 0.0380784 0 0.0055112 0.0602248 0 0.0136784 0.0944048 0 0.0250328 0.126488 0 0.0393088 0.156678 0 0.0562408 0.18493 0 0.0757558 0.211099 0 0.0761608 0.211545 0 0.0975084 0.235027 0 0.121286 0.256561 0 0.146817 0.275556 0 0.173815 0.291893 0 0.201976 0.305479 0 0.231265 0.316348 0 0.261875 0.32451 0 0.293734 0.329787 0 0.326482 0.331954 0 0.356302 0.330955 0 0.359735 0.330839 0 0.393081 0.326333 0 0.426115 0.318381 0 0.458406 0.306994 0 0.489521 0.292252 0 0.519042 0.274298 0 0.546552 0.253361 0 0.571671 0.229743 0 0.594014 0.203893 0 0.613403 0.176171 0 0.629997 0.146363 0 0.643834 0.113945 0 0.654584 0.0785064 0 0.661556 0.0402384 0 0.664 0 0 0.000381 0 0 0.00115027 0.0225488 0 0.00310041 0.0380308 0 0.00588519 0.0601521 0 0.0140439 0.0942971 0 0.0253851 0.126343 0 0.0396449 0.156499 0 0.0565574 0.184718 0 0.0760608 0.210871 0 0.0764427 0.211288 0 0.0977775 0.234757 0 0.121528 0.256267 0 0.14703 0.27524 0 0.173997 0.291558 0 0.202125 0.305129 0 0.23138 0.315985 0 0.261955 0.324137 0 0.293777 0.329409 0 0.326489 0.331573 0 0.35629 0.330574 0 0.359688 0.330461 0 0.393011 0.325958 0 0.426007 0.318015 0 0.458261 0.306642 0 0.48934 0.291917 0 0.518828 0.273983 0 0.546306 0.25307 0 0.571396 0.229479 0 0.593714 0.203659 0 0.61308 0.175969 0 0.629654 0.146195 0 0.643476 0.113815 0 0.654214 0.0784173 0 0.661178 0.040193 0 0.664 -0.000381 0 0.000891 0 0 0.00165897 0.0225125 0 0.00360642 0.0379671 0 0.00638581 0.0600547 0 0.0145331 0.094153 0 0.0258567 0.126149 0 0.0400948 0.156259 0 0.0569811 0.184434 0 0.0764691 0.210565 0 0.0768201 0.210945 0 0.0981377 0.234396 0 0.121852 0.255873 0 0.147314 0.274817 0 0.17424 0.29111 0 0.202325 0.30466 0 0.231534 0.315499 0 0.262062 0.323639 0 0.293836 0.328902 0 0.326499 0.331063 0 0.356273 0.330064 0 0.359624 0.329955 0 0.392917 0.325457 0 0.425862 0.317526 0 0.458066 0.306171 0 0.489098 0.291468 0 0.51854 0.273562 0 0.545976 0.252681 0 0.571028 0.229126 0 0.593312 0.203346 0 0.612648 0.175699 0 0.629196 0.145971 0 0.642997 0.113641 0 0.653718 0.0782981 0 0.660672 0.0401323 0 0.664 -0.000891 0 0.002799 0 0 0.00356211 0.0223764 0 0.00549947 0.0377287 0 0.00981946 0.0593868 0 0.0178885 0.0931645 0 0.0290915 0.124818 0 0.0431804 0.154611 0 0.0598875 0.182488 0 0.0792696 0.208469 0 0.0794084 0.208592 0 0.104501 0.228017 0 0.127573 0.248912 0 0.152343 0.267341 0 0.178537 0.28319 0 0.205853 0.296369 0 0.234262 0.306912 0 0.263957 0.31483 0 0.294867 0.319951 0 0.326667 0.322055 0 0.355971 0.321059 0 0.359062 0.325486 0 0.392086 0.321029 0 0.424584 0.313207 0 0.45635 0.302006 0 0.48696 0.287502 0 0.516002 0.26984 0 0.543065 0.249242 0 0.567777 0.226007 0 0.589758 0.200577 0 0.608828 0.17331 0 0.625149 0.143992 0 0.638761 0.112106 0 0.649338 0.0772449 0 0.656199 0.0395958 0 0.664 -0.005396 0 0.004707 0 0 0.00546526 0.0222403 0 0.00739252 0.0374904 0 0.0132531 0.0587189 0 0.0212439 0.0921759 0 0.0323262 0.123486 0 0.046266 0.152963 0 0.0627939 0.180541 0 0.08207 0.206373 0 0.0819967 0.206239 0 0.118725 0.213759 0 0.140362 0.233354 0 0.163583 0.250629 0 0.18814 0.265487 0 0.213742 0.277839 0 0.240361 0.287718 0 0.268193 0.295141 0 0.297172 0.299944 0 0.327042 0.301918 0 0.355296 0.30093 0 0.358501 0.321016 0 0.391255 0.316602 0 0.423305 0.308887 0 0.454633 0.29784 0 0.484821 0.283537 0 0.513464 0.266118 0 0.540154 0.245804 0 0.564526 0.222888 0 0.586204 0.197809 0 0.605009 0.170921 0 0.621102 0.142013 0 0.634526 0.110571 0 0.644958 0.0761917 0 0.651726 0.0390594 0 0.664 -0.009901 0 0.006615 0 0 0.0073684 0.0221043 0 0.00928557 0.037252 0 0.0166868 0.0580511 0 0.0245993 0.0911874 0 0.035561 0.122155 0 0.0493516 0.151315 0 0.0657003 0.178595 0 0.0848705 0.204277 0 0.084585 0.203886 0 0.120932 0.211547 0 0.142346 0.23094 0 0.165327 0.248036 0 0.18963 0.262741 0 0.214966 0.274963 0 0.241307 0.284739 0 0.26885 0.292085 0 0.29753 0.296839 0 0.327101 0.298794 0 0.355191 0.297807 0 0.358111 0.317915 0 0.390679 0.31353 0 0.422418 0.305891 0 0.453443 0.294951 0 0.483338 0.280787 0 0.511703 0.263536 0 0.538135 0.243419 0 0.562272 0.220725 0 0.583738 0.195888 0 0.602359 0.169264 0 0.618295 0.14064 0 0.631588 0.109507 0 0.641919 0.0754612 0 0.648623 0.0386873 0 0.664 -0.013026 0 0.008523 0 0 0.00927154 0.0219682 0 0.0111786 0.0370136 0 0.0201204 0.0573832 0 0.0279547 0.0901989 0 0.0387957 0.120824 0 0.0524372 0.149668 0 0.0686067 0.176648 0 0.087671 0.202181 0 0.0871733 0.201533 0 0.134782 0.197664 0 0.154798 0.21579 0 0.176272 0.231765 0 0.198981 0.245504 0 0.222647 0.25692 0 0.247245 0.26605 0 0.272975 0.272914 0 0.299775 0.277358 0 0.327466 0.279187 0 0.354534 0.278208 0 0.357583 0.313708 0 0.389896 0.309363 0 0.421214 0.301825 0 0.451827 0.291031 0 0.481326 0.277055 0 0.509314 0.260033 0 0.535396 0.240183 0 0.559212 0.217789 0 0.580393 0.193283 0 0.598765 0.167015 0 0.614486 0.138777 0 0.627601 0.108062 0 0.637797 0.0744699 0 0.644413 0.0381824 0 0.664 -0.017266 0 0.010431 0 0 0.0111747 0.0218321 0 0.0130717 0.0367752 0 0.0235541 0.0567153 0 0.0313102 0.0892104 0 0.0420304 0.119492 0 0.0555229 0.14802 0 0.0715131 0.174702 0 0.0904714 0.200085 0 0.0897616 0.19918 0 0.140771 0.19166 0 0.160183 0.209239 0 0.181005 0.224728 0 0.203025 0.23805 0 0.225968 0.249117 0 0.249812 0.257968 0 0.274758 0.264624 0 0.300746 0.268934 0 0.327625 0.270709 0 0.35425 0.269733 0 0.357054 0.309501 0 0.389114 0.305196 0 0.420011 0.297759 0 0.450212 0.287111 0 0.479314 0.273323 0 0.506926 0.25653 0 0.532656 0.236947 0 0.556153 0.214854 0 0.577049 0.190677 0 0.59517 0.164767 0 0.610677 0.136915 0 0.623615 0.106618 0 0.633674 0.0734787 0 0.640204 0.0376775 0 0.664 -0.021506 0 0.00077024 -0.022576 0 0.0027224 -0.0380784 0 0.0055112 -0.0602248 0 0.0136784 -0.0944048 0 0.0250328 -0.126488 0 0.0393088 -0.156678 0 0.0562408 -0.18493 0 0.0757558 -0.211099 0 0.0761608 -0.211545 0 0.0975084 -0.235027 0 0.121286 -0.256561 0 0.146817 -0.275556 0 0.173815 -0.291893 0 0.201976 -0.305479 0 0.231265 -0.316348 0 0.261875 -0.32451 0 0.293734 -0.329787 0 0.326482 -0.331954 0 0.356302 -0.330955 0 0.359735 -0.330839 0 0.393081 -0.326333 0 0.426115 -0.318381 0 0.458406 -0.306994 0 0.489521 -0.292252 0 0.519042 -0.274298 0 0.546552 -0.253361 0 0.571671 -0.229743 0 0.594014 -0.203893 0 0.613403 -0.176171 0 0.629997 -0.146363 0 0.643834 -0.113945 0 0.654584 -0.0785064 0 0.661556 -0.0402384 0 0.664 0 0 0.0011455 -0.0225101 0 0.00310041 -0.0380308 0 0.00588519 -0.0601521 0 0.0140439 -0.0942971 0 0.0253851 -0.126343 0 0.0396449 -0.156499 0 0.0565574 -0.184718 0 0.0760608 -0.210871 0 0.0764427 -0.211288 0 0.0977775 -0.234757 0 0.121528 -0.256267 0 0.14703 -0.27524 0 0.173997 -0.291558 0 0.202125 -0.305129 0 0.23138 -0.315985 0 0.261955 -0.324137 0 0.293777 -0.329409 0 0.326489 -0.331573 0 0.35629 -0.330574 0 0.359688 -0.330461 0 0.393011 -0.325958 0 0.426007 -0.318015 0 0.458261 -0.306642 0 0.48934 -0.291917 0 0.518828 -0.273983 0 0.546306 -0.25307 0 0.571396 -0.229479 0 0.593714 -0.203659 0 0.61308 -0.175969 0 0.629654 -0.146195 0 0.643476 -0.113815 0 0.654214 -0.0784173 0 0.661178 -0.040193 0 0.664 0.000381 0 0.00164781 -0.0224219 0 0.00360642 -0.0379671 0 0.00638581 -0.0600547 0 0.0145331 -0.094153 0 0.0258567 -0.126149 0 0.0400948 -0.156259 0 0.0569811 -0.184434 0 0.0764691 -0.210565 0 0.0768201 -0.210945 0 0.0981377 -0.234396 0 0.121852 -0.255873 0 0.147314 -0.274817 0 0.17424 -0.29111 0 0.202325 -0.30466 0 0.231534 -0.315499 0 0.262062 -0.323639 0 0.293836 -0.328902 0 0.326499 -0.331063 0 0.356273 -0.330064 0 0.359624 -0.329955 0 0.392917 -0.325457 0 0.425862 -0.317526 0 0.458066 -0.306171 0 0.489098 -0.291468 0 0.51854 -0.273562 0 0.545976 -0.252681 0 0.571028 -0.229126 0 0.593312 -0.203346 0 0.612648 -0.175699 0 0.629196 -0.145971 0 0.642997 -0.113641 0 0.653718 -0.0782981 0 0.660672 -0.0401323 0 0.664 0.000891 0 0.00352705 -0.0220919 0 0.00549947 -0.0377287 0 0.00981946 -0.0593868 0 0.0178885 -0.0931645 0 0.0290915 -0.124818 0 0.0431804 -0.154611 0 0.0598875 -0.182488 0 0.0792696 -0.208469 0 0.0794084 -0.208592 0 0.104501 -0.228017 0 0.127573 -0.248912 0 0.152343 -0.267341 0 0.178537 -0.28319 0 0.205853 -0.296369 0 0.234262 -0.306912 0 0.263957 -0.31483 0 0.294867 -0.319951 0 0.326667 -0.322055 0 0.355971 -0.321059 0 0.359062 -0.325486 0 0.392086 -0.321029 0 0.424584 -0.313207 0 0.45635 -0.302006 0 0.48696 -0.287502 0 0.516002 -0.26984 0 0.543065 -0.249242 0 0.567777 -0.226007 0 0.589758 -0.200577 0 0.608828 -0.17331 0 0.625149 -0.143992 0 0.638761 -0.112106 0 0.649338 -0.0772449 0 0.656199 -0.0395958 0 0.664 0.005396 0 0.0054063 -0.0217619 0 0.00739252 -0.0374904 0 0.0132531 -0.0587189 0 0.0212439 -0.0921759 0 0.0323262 -0.123486 0 0.046266 -0.152963 0 0.0627939 -0.180541 0 0.08207 -0.206373 0 0.0819967 -0.206239 0 0.118725 -0.213759 0 0.140362 -0.233354 0 0.163583 -0.250629 0 0.18814 -0.265487 0 0.213742 -0.277839 0 0.240361 -0.287718 0 0.268193 -0.295141 0 0.297172 -0.299944 0 0.327042 -0.301918 0 0.355296 -0.30093 0 0.358501 -0.321016 0 0.391255 -0.316602 0 0.423305 -0.308887 0 0.454633 -0.29784 0 0.484821 -0.283537 0 0.513464 -0.266118 0 0.540154 -0.245804 0 0.564526 -0.222888 0 0.586204 -0.197809 0 0.605009 -0.170921 0 0.621102 -0.142013 0 0.634526 -0.110571 0 0.644958 -0.0761917 0 0.651726 -0.0390594 0 0.664 0.009901 0 0.00728554 -0.0214318 0 0.00928557 -0.037252 0 0.0166868 -0.0580511 0 0.0245993 -0.0911874 0 0.035561 -0.122155 0 0.0493516 -0.151315 0 0.0657003 -0.178595 0 0.0848705 -0.204277 0 0.084585 -0.203886 0 0.120932 -0.211547 0 0.142346 -0.23094 0 0.165327 -0.248036 0 0.18963 -0.262741 0 0.214966 -0.274963 0 0.241307 -0.284739 0 0.26885 -0.292085 0 0.29753 -0.296839 0 0.327101 -0.298794 0 0.355191 -0.297807 0 0.358111 -0.317915 0 0.390679 -0.31353 0 0.422418 -0.305891 0 0.453443 -0.294951 0 0.483338 -0.280787 0 0.511703 -0.263536 0 0.538135 -0.243419 0 0.562272 -0.220725 0 0.583738 -0.195888 0 0.602359 -0.169264 0 0.618295 -0.14064 0 0.631588 -0.109507 0 0.641919 -0.0754612 0 0.648623 -0.0386873 0 0.664 0.013026 0 0.00916478 -0.0211018 0 0.0111786 -0.0370136 0 0.0201204 -0.0573832 0 0.0279547 -0.0901989 0 0.0387957 -0.120824 0 0.0524372 -0.149668 0 0.0686067 -0.176648 0 0.087671 -0.202181 0 0.0871733 -0.201533 0 0.134782 -0.197664 0 0.154798 -0.21579 0 0.176272 -0.231765 0 0.198981 -0.245504 0 0.222647 -0.25692 0 0.247245 -0.26605 0 0.272975 -0.272914 0 0.299775 -0.277358 0 0.327466 -0.279187 0 0.354534 -0.278208 0 0.357583 -0.313708 0 0.389896 -0.309363 0 0.421214 -0.301825 0 0.451827 -0.291031 0 0.481326 -0.277055 0 0.509314 -0.260033 0 0.535396 -0.240183 0 0.559212 -0.217789 0 0.580393 -0.193283 0 0.598765 -0.167015 0 0.614486 -0.138777 0 0.627601 -0.108062 0 0.637797 -0.0744699 0 0.644413 -0.0381824 0 0.664 0.017266 0 0.011044 -0.0207718 0 0.0130717 -0.0367752 0 0.0235541 -0.0567153 0 0.0313102 -0.0892104 0 0.0420304 -0.119492 0 0.0555229 -0.14802 0 0.0715131 -0.174702 0 0.0904714 -0.200085 0 0.0897616 -0.19918 0 0.140771 -0.19166 0 0.160183 -0.209239 0 0.181005 -0.224728 0 0.203025 -0.23805 0 0.225968 -0.249117 0 0.249812 -0.257968 0 0.274758 -0.264624 0 0.300746 -0.268934 0 0.327625 -0.270709 0 0.35425 -0.269733 0 0.357054 -0.309501 0 0.389114 -0.305196 0 0.420011 -0.297759 0 0.450212 -0.287111 0 0.479314 -0.273323 0 0.506926 -0.25653 0 0.532656 -0.236947 0 0.556153 -0.214854 0 0.577049 -0.190677 0 0.59517 -0.164767 0 0.610677 -0.136915 0 0.623615 -0.106618 0 0.633674 -0.0734787 0 0.640204 -0.0376775 0 0.664 0.021506 0 
</DataArray>
</Points>
<Cells>
<DataArray Name="connectivity" format="ascii" type="Int64">
0 35 36 1 1 36 37 2 2 37 38 3 3 38 39 4 4 39 40 5 5 40 41 6 6 41 42 7 7 42 43 8 8 43 44 9 9 44 45 10 10 45 46 11 11 46 47 12 12 47 48 13 13 48 49 14 14 49 50 15 15 50 51 16 16 51 52 17 17 52 53 18 18 53 54 19 19 54 55 20 20 55 56 21 21 56 57 22 22 57 58 23 23 58 59 24 24 59 60 25 25 60 61 26 26 61 62 27 27 62 63 28 28 63 64 29 29 64 65 30 30 65 66 31 31 66 67 32 32 67 68 33 33 68 69 34 35 70 71 36 36 71 72 37 37 72 73 38 38 73 74 39 39 74 75 40 40 75 76 41 41 76 77 42 42 77 78 43 43 78 79 44 44 79 80 45 45 80 81 46 46 81 82 47 47 82 83 48 48 83 84 49 49 84 85 50 50 85 86 51 51 86 87 52 52 87 88 53 53 88 89 54 54 89 90 55 55 90 91 56 56 91 92 57 57 92 93 58 58 93 94 59 59 94 95 60 60 95 96 61 61 96 97 62 62 97 98 63 63 98 99 64 64 99 100 65 65 100 101 66 66 101 102 67 67 102 103 68 68 103 104 69 70 105 106 71 71 106 107 72 72 107 108 73 73 108 109 74 74 109 110 75 75 110 111 76 76 111 112 77 77 112 113 78 78 113 114 79 79 114 115 80 80 115 116 81 81 116 117 82 82 117 118 83 83 118 119 84 84 119 120 85 85 120 121 86 86 121 122 87 87 122 123 88 88 123 124 89 89 124 125 90 90 125 126 91 91 126 127 92 92 127 128 93 93 128 129 94 94 129 130 95 95 130 131 96 96 131 132 97 97 132 133 98 98 133 134 99 99 134 135 100 100 135 136 101 101 136 137 102 102 137 138 103 103 138 139 104 105 140 141 106 106 141 142 107 107 142 143 108 108 143 144 109 109 144 145 110 110 145 146 111 111 146 147 112 112 147 148 113 113 148 149 114 114 149 150 115 115 150 151 116 116 151 152 117 117 152 153 118 118 153 154 119 119 154 155 120 120 155 156 121 121 156 157 122 122 157 158 123 123 158 159 124 124 159 160 125 125 160 161 126 126 161 162 127 127 162 163 128 128 163 164 129 129 164 165 130 130 165 166 131 131 166 167 132 132 167 168 133 133 168 169 134 134 169 170 135 135 170 171 136 136 171 172 137 137 172 173 138 138 173 174 139 140 175 176 141 141 176 177 142 142 177 178 143 143 178 179 144 144 179 180 145 145 180 181 146 146 181 182 147 147 182 183 148 148 183 184 149 149 184 185 150 150 185 186 151 151 186 187 152 152 187 188 153 153 188 189 154 154 189 190 155 155 190 191 156 156 191 192 157 157 192 193 158 158 193 194 159 159 194 195 160 160 195 196 161 161 196 197 162 162 197 198 163 163 198 199 164 164 199 200 165 165 200 201 166 166 201 202 167 167 202 203 168 168 203 204 169 169 204 205 170 170 205 206 171 171 206 207 172 172 207 208 173 173 208 209 174 175 210 211 176 176 211 212 177 177 212 213 178 178 213 214 179 179 214 215 180 180 215 216 181 181 216 217 182 182 217 218 183 183 218 219 184 184 219 220 185 185 220 221 186 186 221 222 187 187 222 223 188 188 223 224 189 189 224 225 190 190 225 226 191 191 226 227 192 192 227 228 193 193 228 229 194 194 229 230 195 195 230 231 196 196 231 232 197 197 232 233 198 198 233 234 199 199 234 235 200 200 235 236 201 201 236 237 202 202 237 238 203 203 238 239 204 204 239 240 205 205 240 241 206 206 241 242 207 207 242 243 208 208 243 244 209 210 245 246 211 211 246 247 212 212 247 248 213 213 248 249 214 214 249 250 215 215 250 251 216 216 251 252 217 217 252 253 218 218 253 254 219 219 254 255 220 220 255 256 221 221 256 257 222 222 257 258 223 223 258 259 224 224 259 260 225 225 260 261 226 226 261 262 227 227 262 263 228 228 263 264 229 229 264 265 230 230 265 266 231 231 266 267 232 232 267 268 233 233 268 269 234 234 269 270 235 235 270 271 236 236 271 272 237 237 272 273 238 238 273 274 239 239 274 275 240 240 275 276 241 241 276 277 242 242 277 278 243 243 278 279 244 0 280 314 35 280 281 315 314 281 282 316 315 282 283 317 316 283 284 318 317 284 285 319 318 285 286 320 319 286 287 321 320 287 288 322 321 288 289 323 322 289 290 324 323 290 291 325 324 291 292 326 325 292 293 327 326 293 294 328 327 294 295 329 328 295 296 330 329 296 297 331 330 297 298 332 331 298 299 333 332 299 300 334 333 300 301 335 334 301 302 336 335 302 303 337 336 303 304 338 337 304 305 339 338 305 306 340 339 306 307 341 340 307 308 342 341 308 309 343 342 309 310 344 343 310 311 345 344 311 312 346 345 312 313 347 346 35 314 348 70 314 315 349 348 315 316 350 349 316 317 351 350 317 318 352 351 318 319 353 352 319 320 354 353 320 321 355 354 321 322 356 355 322 323 357 356 323 324 358 357 324 325 359 358 325 326 360 359 326 327 361 360 327 328 362 361 328 329 363 362 329 330 364 363 330 331 365 364 331 332 366 365 332 333 367 366 333 334 368 367 334 335 369 368 335 336 370 369 336 337 371 370 337 338 372 371 338 339 373 372 339 340 374 373 340 341 375 374 341 342 376 375 342 343 377 376 343 344 378 377 344 345 379 378 345 346 380 379 346 347 381 380 70 348 382 105 348 349 383 382 349 350 384 383 350 351 385 384 351 352 386 385 352 353 387 386 353 354 388 387 354 355 389 388 355 356 390 389 356 357 391 390 357 358 392 391 358 359 393 392 359 360 394 393 360 361 395 394 361 362 396 395 362 363 397 396 363 364 398 397 364 365 399 398 365 366 400 399 366 367 401 400 367 368 402 401 368 369 403 402 369 370 404 403 370 371 405 404 371 372 406 405 372 373 407 406 373 374 408 407 374 375 409 408 375 376 410 409 376 377 411 410 377 378 412 411 378 379 413 412 379 380 414 413 380 381 415 414 105 382 416 140 382 383 417 416 383 384 418 417 384 385 419 418 385 386 420 419 386 387 421 420 387 388 422 421 388 389 423 422 389 390 424 423 390 391 425 424 391 392 426 425 392 393 427 426 393 394 428 427 394 395 429 428 395 396 430 429 396 397 431 430 397 398 432 431 398 399 433 432 399 400 434 433 400 401 435 434 401 402 436 435 402 403 437 436 403 404 438 437 404 405 439 438 405 406 440 439 406 407 441 440 407 408 442 441 408 409 443 442 409 410 444 443 410 411 445 444 411 412 446 445 412 413 447 446 413 414 448 447 414 415 449 448 140 416 450 175 416 417 451 450 417 418 452 451 418 419 453 452 419 420 454 453 420 421 455 454 421 422 456 455 422 423 457 456 423 424 458 457 424 425 459 458 425 426 460 459 426 427 461 460 427 428 462 461 428 429 463 462 429 430 464 463 430 431 465 464 431 432 466 465 432 433 467 466 433 434 468 467 434 435 469 468 435 436 470 469 436 437 471 470 437 438 472 471 438 439 473 472 439 440 474 473 440 441 475 474 441 442 476 475 442 443 477 476 443 444 478 477 444 445 479 478 445 446 480 479 446 447 481 480 447 448 482 481 448 449 483 482 175 450 484 210 450 451 485 484 451 452 486 485 452 453 487 486 453 454 488 487 454 455 489 488 455 456 490 489 456 457 491 490 457 458 492 491 458 459 493 492 459 460 494 493 460 461 495 494 461 462 496 495 462 463 497 496 463 464 498 497 464 465 499 498 465 466 500 499 466 467 501 500 467 468 502 501 468 469 503 502 469 470 504 503 470 471 505 504 471 472 506 505 472 473 507 506 473 474 508 507 474 475 509 508 475 476 510 509 476 477 511 510 477 478 512 511 478 479 513 512 479 480 514 513 480 481 515 514 481 482 516 515 482 483 517 516 210 484 518 245 484 485 519 518 485 486 520 519 486 487 521 520 487 488 522 521 488 489 523 522 489 490 524 523 490 491 525 524 491 492 526 525 492 493 527 526 493 494 528 527 494 495 529 528 495 496 530 529 496 497 531 530 497 498 532 531 498 499 533 532 499 500 534 533 500 501 535 534 501 502 536 535 502 503 537 536 503 504 538 537 504 505 539 538 505 506 540 539 506 507 541 540 507 508 542 541 508 509 543 542 509 510 544 543 510 511 545 544 511 512 546 545 512 513 547 546 513 514 548 547 514 515 549 548 515 516 550 549 516 517 551 550 
</DataArray>
<DataArray Name="offsets" format="ascii" type="Int64">
4 8 12 16 20 24 28 32 36 40 44 48 52 56 60 64 68 72 76 80 84 88 92 96 100 104 108 112 116 120 124 128 132 136 140 144 148 152 156 160 164 168 172 176 180 184 188 192 196 200 204 208 212 216 220 224 228 232 236 240 244 248 252 256 260 264 268 272 276 280 284 288 292 296 300 304 308 312 316 320 324 328 332 336 340 344 348 352 356 360 364 368 372 376 380 384 388 392 396 400 404 408 412 416 420 424 428 432 436 440 444 448 452 456 460 464 468 472 476 480 484 488 492 496 500 504 508 512 516 520 524 528 532 536 540 544 548 552 556 560 564 568 572 576 580 584 588 592 596 600 604 608 612 616 620 624 628 632 636 640 644 648 652 656 660 664 668 672 676 680 684 688 692 696 700 704 708 712 716 720 724 728 732 736 740 744 748 752 756 760 764 768 772 776 780 784 788 792 796 800 804 808 812 816 820 824 828 832 836 840 844 848 852 856 860 864 868 872 876 880 884 888 892 896 900 904 908 912 916 920 924 928 932 936 940 944 948 952 956 960 964 968 972 976 980 984 988 992 996 1000 1004 1008 1012 1016 1020 1024 1028 1032 1036 1040 1044 1048 1052 1056 1060 1064 1068 1072 1076 1080 1084 1088 1092 1096 1100 1104 1108 1112 1116 1120 1124 1128 1132 1136 1140 1144 1148 1152 1156 1160 1164 1168 1172 1176 1180 1184 1188 1192 1196 1200 1204 1208 1212 1216 1220 1224 1228 1232 1236 1240 1244 1248 1252 1256 1260 1264 1268 1272 1276 1280 1284 1288 1292 1296 1300 1304 1308 1312 1316 1320 1324 1328 1332 1336 1340 1344 1348 1352 1356 1360 1364 1368 1372 1376 1380 1384 1388 1392 1396 1400 1404 1408 1412 1416 1420 1424 1428 1432 1436 1440 1444 1448 1452 1456 1460 1464 1468 1472 1476 1480 1484 1488 1492 1496 1500 1504 1508 1512 1516 1520 1524 1528 1532 1536 1540 1544 1548 1552 1556 1560 1564 1568 1572 1576 1580 1584 1588 1592 1596 1600 1604 1608 1612 1616 1620 1624 1628 1632 1636 1640 1644 1648 1652 1656 1660 1664 1668 1672 1676 1680 1684 1688 1692 1696 1700 1704 1708 1712 1716 1720 1724 1728 1732 1736 1740 1744 1748 1752 1756 1760 1764 1768 1772 1776 1780 1784 1788 1792 1796 1800 1804 1808 1812 1816 1820 1824 1828 1832 1836 1840 1844 1848 1852 1856 1860 1864 1868 1872 1876 1880 1884 1888 1892 1896 1900 1904 
</DataArray>
<DataArray Name="types" format="ascii" type="Int8">
9 9 9 9 9 9 9 9 9 9 9 9 9 9 9 9 9 9 9 9 9 9 9 9 9 9 9 9 9 9 9 9 9 9 9 9 9 9 9 9 9 9 9 9 9 9 9 9 9 9 9 9 9 9 9 9 9 9 9 9 9 9 9 9 9 9 9 9 9 9 9 9 9 9 9 9 9 9 9 9 9 9 9 9 9 9 9 9 9 9 9 9 9 9 9 9 9 9 9 9 9 9 9 9 9 9 9 9 9 9 9 9 9 9 9 9 9 9 9 9 9 9 9 9 9 9 9 9 9 9 9 9 9 9 9 9 9 9 9 9 9 9 9 9 9 9 9 9 9 9 9 9 9 9 9 9 9 9 9 9 9 9 9 9 9 9 9 9 9 9 9 9 9 9 9 9 9 9 9 9 9 9 9 9 9 9 9 9 9 9 9 9 9 9 9 9 9 9 9 9 9 9 9 9 9 9 9 9 9 9 9 9 9 9 9 9 9 9 9 9 9 9 9 9 9 9 9 9 9 9 9 9 9 9 9 9 9 9 9 9 9 9 9 9 9 9 9 9 9 9 9 9 9 9 9 9 9 9 9 9 9 9 9 9 9 9 9 9 9 9 9 9 9 9 9 9 9 9 9 9 9 9 9 9 9 9 9 9 9 9 9 9 9 9 9 9 9 9 9 9 9 9 9 9 9 9 9 9 9 9 9 9 9 9 9 9 9 9 9 9 9 9 9 9 9 9 9 9 9 9 9 9 9 9 9 9 9 9 9 9 9 9 9 9 9 9 9 9 9 9 9 9 9 9 9 9 9 9 9 9 9 9 9 9 9 9 9 9 9 9 9 9 9 9 9 9 9 9 9 9 9 9 9 9 9 9 9 9 9 9 9 9 9 9 9 9 9 9 9 9 9 9 9 9 9 9 9 9 9 9 9 9 9 9 9 9 9 9 9 9 9 9 9 9 9 9 9 9 9 9 9 9 9 9 9 9 9 9 9 9 9 9 9 9 9 9 9 9 9 9 9 9 9 9 9 9 9 9 9 9 9 9 9 9 9 9 9 9 9 9 9 9 9 9 9 9 
</DataArray>
</Cells>
</Piece>
</UnstructuredGrid>
</VTKFile>
