<?xml version="1.0"?>
<VTKFile byte_order="LittleEndian" type="UnstructuredGrid" version="0.1">
<UnstructuredGrid>
<Piece NumberOfCells="100" NumberOfPoints="121">
<PointData>
<DataArray Name="Warping_X" format="ascii" type="Float64">
0.53781 6.40326e-17 0.378936 0.248583 0.146911 0.0674798 -3.04897e-17 6.08962e-17 6.69129e-17 3.83711e-17 2.02011e-18 -1.02166e-16 -7.87911e-17 -1.36452e-16 -1.4864e-16 -1.43974e-16 0.153255 0.296843 0.420398 0.510582 0.37117 0.245588 0.145676 0.0670451 0.316751 0.214331 0.128525 0.0594732 0.228094 0.157693 0.0957558 0.0445759 0.118892 0.0832594 0.0510438 0.0238729 -0.53781 -0.0674798 -0.146911 -0.248583 -0.378936 4.63927e-17 -0.510582 -0.420398 -0.296843 -0.153255 1.63143e-16 1.26232e-16 7.71e-17 5.88853e-18 -0.0670451 -0.145676 -0.245588 -0.37117 -0.0594732 -0.128525 -0.214331 -0.316751 -0.0445759 -0.0957558 -0.157693 -0.228094 -0.0238729 -0.0510438 -0.0832594 -0.118892 -1.07618e-16 -6.50531e-17 -8.2823e-17 -1.03644e-16 -8.71322e-17 -0.53781 -0.0674798 -0.146911 -0.248583 -0.378936 -0.510582 -0.420398 -0.296843 -0.153255 -0.118892 -0.0832594 -0.0510438 -0.0238729 -0.228094 -0.157693 -0.0957558 -0.0445759 -0.316751 -0.214331 -0.128525 -0.0594732 -0.37117 -0.245588 -0.145676 -0.0670451 0.53781 0.153255 0.296843 0.420398 0.510582 0.378936 0.248583 0.146911 0.0674798 0.0238729 0.0510438 0.0832594 0.118892 0.0445759 0.0957558 0.157693 0.228094 0.0594732 0.128525 0.214331 0.316751 0.0670451 0.145676 0.245588 0.37117 
</DataArray>
<DataArray Name="Warping_Y" format="ascii" type="Float64">
-0.328381 -0.210207 -0.298542 -0.267956 -0.238518 -0.217684 0.242597 -0.0709495 0.0569237 0.157412 0.220933 0.0851249 0.237957 0.222807 0.19404 0.148463 0.0688759 0.0204728 -0.0596946 -0.172457 -0.135723 -0.108578 -0.0883532 -0.0754212 -0.0104802 0.0218843 0.0420802 0.0533052 0.0776331 0.117028 0.140989 0.153536 0.1307 0.174697 0.202156 0.216531 -0.328381 -0.217684 -0.238518 -0.267956 -0.298542 0.0851249 -0.172457 -0.0596946 0.0204728 0.0688759 0.148463 0.19404 0.222807 0.237957 -0.0754212 -0.0883532 -0.108578 -0.135723 0.0533052 0.0420802 0.0218843 -0.0104802 0.153536 0.140989 0.117028 0.0776331 0.216531 0.202156 0.174697 0.1307 -0.210207 0.220933 0.157412 0.0569237 -0.0709495 -0.328381 -0.217684 -0.238518 -0.267956 -0.298542 -0.172457 -0.0596946 0.0204728 0.0688759 0.1307 0.174697 0.202156 0.216531 0.0776331 0.117028 0.140989 0.153536 -0.0104802 0.0218843 0.0420802 0.0533052 -0.135723 -0.108578 -0.0883532 -0.0754212 -0.328381 0.0688759 0.0204728 -0.0596946 -0.172457 -0.298542 -0.267956 -0.238518 -0.217684 0.216531 0.202156 0.174697 0.1307 0.153536 0.140989 0.117028 0.0776331 0.0533052 0.0420802 0.0218843 -0.0104802 -0.0754212 -0.0883532 -0.108578 -0.135723 
</DataArray>
<DataArray Name="Warping_Z" format="ascii" type="Float64">
0 0 0 0 0 0 0 0 0 0 0 0 0 0 0 0 0 0 0 0 0 0 0 0 0 0 0 0 0 0 0 0 0 0 0 0 0 0 0 0 0 0 0 0 0 0 0 0 0 0 0 0 0 0 0 0 0 0 0 0 0 0 0 0 0 0 0 0 0 0 0 0 0 0 0 0 0 0 0 0 0 0 0 0 0 0 0 0 0 0 0 0 0 0 0 0 0 0 0 0 0 0 0 0 0 0 0 0 0 0 0 0 0 0 0 0 0 0 0 0 0 
</DataArray>
</PointData>
<CellData>
<DataArray Name="MaterialId" format="ascii" type="Float64">
3 3 3 3 3 3 3 3 3 3 3 3 3 3 3 3 3 3 3 3 3 3 3 3 3 3 3 3 3 3 3 3 3 3 3 3 3 3 3 3 3 3 3 3 3 3 3 3 3 3 3 3 3 3 3 3 3 3 3 3 3 3 3 3 3 3 3 3 3 3 3 3 3 3 3 3 3 3 3 3 3 3 3 3 3 3 3 3 3 3 3 3 3 3 3 3 3 3 3 3 
</DataArray>
<DataArray Name="FiberAngle" format="ascii" type="Float64">
45 45 45 45 45 45 45 45 45 45 45 45 45 45 45 45 45 45 45 45 45 45 45 45 45 45 45 45 45 45 45 45 45 45 45 45 45 45 45 45 45 45 45 45 45 45 45 45 45 45 45 45 45 45 45 45 45 45 45 45 45 45 45 45 45 45 45 45 45 45 45 45 45 45 45 45 45 45 45 45 45 45 45 45 45 45 45 45 45 45 45 45 45 45 45 45 45 45 45 45 
</DataArray>
<DataArray Name="Strain_11" format="ascii" type="Float64">
-1.74966 -7.23016 -10.6106 -12.6395 -13.6073 -0.537994 -4.28384 -7.26475 -9.18178 -10.1076 -0.211455 -2.42038 -4.47037 -5.95729 -6.71516 -0.0834788 -1.23612 -2.38334 -3.27075 -3.74583 -0.0217364 -0.378598 -0.744863 -1.03515 -1.19364 0.0217364 0.378598 0.744863 1.03515 1.19364 0.0834788 1.23612 2.38334 3.27075 3.74583 0.211455 2.42038 4.47037 5.95729 6.71516 0.537994 4.28384 7.26475 9.18178 10.1076 1.74966 7.23016 10.6106 12.6395 13.6073 -13.6073 -12.6395 -10.6106 -7.23016 -1.74966 -10.1076 -9.18178 -7.26475 -4.28384 -0.537994 -6.71516 -5.95729 -4.47037 -2.42038 -0.211455 -3.74583 -3.27075 -2.38334 -1.23612 -0.0834788 -1.19364 -1.03515 -0.744863 -0.378598 -0.0217364 1.19364 1.03515 0.744863 0.378598 0.0217364 3.74583 3.27075 2.38334 1.23612 0.0834788 6.71516 5.95729 4.47037 2.42038 0.211455 10.1076 9.18178 7.26475 4.28384 0.537994 13.6073 12.6395 10.6106 7.23016 1.74966 
</DataArray>
<DataArray Name="Strain_22" format="ascii" type="Float64">
3.32866 4.29742 5.31873 5.94921 6.25811 2.88651 2.97545 3.58798 4.1696 4.47869 2.48315 2.02105 2.20782 2.57099 2.81133 1.68833 1.20785 1.18862 1.34613 1.47624 0.597424 0.404509 0.374731 0.413885 0.452115 -0.597424 -0.404509 -0.374731 -0.413885 -0.452115 -1.68833 -1.20785 -1.18862 -1.34613 -1.47624 -2.48315 -2.02105 -2.20782 -2.57099 -2.81133 -2.88651 -2.97545 -3.58798 -4.1696 -4.47869 -3.32866 -4.29742 -5.31873 -5.94921 -6.25811 6.25811 5.94921 5.31873 4.29742 3.32866 4.47869 4.1696 3.58798 2.97545 2.88651 2.81133 2.57099 2.20782 2.02105 2.48315 1.47624 1.34613 1.18862 1.20785 1.68833 0.452115 0.413885 0.374731 0.404509 0.597424 -0.452115 -0.413885 -0.374731 -0.404509 -0.597424 -1.47624 -1.34613 -1.18862 -1.20785 -1.68833 -2.81133 -2.57099 -2.20782 -2.02105 -2.48315 -4.47869 -4.1696 -3.58798 -2.97545 -2.88651 -6.25811 -5.94921 -5.31873 -4.29742 -3.32866 
</DataArray>
<DataArray Name="Strain_12" format="ascii" type="Float64">
1.0229 -0.252737 -0.205824 -0.0821233 -0.0175435 3.31312 1.38519 0.52184 0.235128 0.0736753 5.39792 3.75887 2.31545 1.23417 0.388908 6.71833 5.57386 3.94535 2.29061 0.745244 7.34976 6.50407 4.83351 2.90338 0.960818 7.34976 6.50407 4.83351 2.90338 0.960818 6.71833 5.57386 3.94535 2.29061 0.745244 5.39792 3.75887 2.31545 1.23417 0.388908 3.31312 1.38519 0.52184 0.235128 0.0736753 1.0229 -0.252737 -0.205824 -0.0821233 -0.0175435 0.0175435 0.0821233 0.205824 0.252737 -1.0229 -0.0736753 -0.235128 -0.52184 -1.38519 -3.31312 -0.388908 -1.23417 -2.31545 -3.75887 -5.39792 -0.745244 -2.29061 -3.94535 -5.57386 -6.71833 -0.960818 -2.90338 -4.83351 -6.50407 -7.34976 -0.960818 -2.90338 -4.83351 -6.50407 -7.34976 -0.745244 -2.29061 -3.94535 -5.57386 -6.71833 -0.388908 -1.23417 -2.31545 -3.75887 -5.39792 -0.0736753 -0.235128 -0.52184 -1.38519 -3.31312 0.0175435 0.0821233 0.205824 0.252737 -1.0229 
</DataArray>
<DataArray Name="Strain_13" format="ascii" type="Float64">
-32.0035 -17.3044 -8.0195 -2.40019 0.271782 -27.8364 -18.8248 -11.8268 -7.28879 -5.07346 -20.4742 -15.3469 -10.9821 -7.91657 -6.36353 -12.4829 -9.80781 -7.46233 -5.75424 -4.86388 -4.18766 -3.35942 -2.62137 -2.07667 -1.7895 4.18766 3.35942 2.62137 2.07667 1.7895 12.4829 9.80781 7.46233 5.75424 4.86388 20.4742 15.3469 10.9821 7.91657 6.36353 27.8364 18.8248 11.8268 7.28879 5.07346 32.0035 17.3044 8.0195 2.40019 -0.271782 0.271782 -2.40019 -8.0195 -17.3044 -32.0035 -5.07346 -7.28879 -11.8268 -18.8248 -27.8364 -6.36353 -7.91657 -10.9821 -15.3469 -20.4742 -4.86388 -5.75424 -7.46233 -9.80781 -12.4829 -1.7895 -2.07667 -2.62137 -3.35942 -4.18766 1.7895 2.07667 2.62137 3.35942 4.18766 4.86388 5.75424 7.46233 9.80781 12.4829 6.36353 7.91657 10.9821 15.3469 20.4742 5.07346 7.28879 11.8268 18.8248 27.8364 -0.271782 2.40019 8.0195 17.3044 32.0035 
</DataArray>
<DataArray Name="Strain_23" format="ascii" type="Float64">
26.1014 24.2616 18.3814 11.3502 3.8304 0.674643 5.20113 5.79359 4.16891 1.49484 -13.0266 -6.67282 -2.90258 -1.02098 -0.22477 -20.5862 -13.3697 -8.04113 -4.20066 -1.29488 -23.9716 -16.4045 -10.4037 -5.68567 -1.7995 -23.9716 -16.4045 -10.4037 -5.68567 -1.7995 -20.5862 -13.3697 -8.04113 -4.20066 -1.29488 -13.0266 -6.67282 -2.90258 -1.02098 -0.22477 0.674643 5.20113 5.79359 4.16891 1.49484 26.1014 24.2616 18.3814 11.3502 3.8304 -3.8304 -11.3502 -18.3814 -24.2616 -26.1014 -1.49484 -4.16891 -5.79359 -5.20113 -0.674643 0.22477 1.02098 2.90258 6.67282 13.0266 1.29488 4.20066 8.04113 13.3697 20.5862 1.7995 5.68567 10.4037 16.4045 23.9716 1.7995 5.68567 10.4037 16.4045 23.9716 1.29488 4.20066 8.04113 13.3697 20.5862 0.22477 1.02098 2.90258 6.67282 13.0266 -1.49484 -4.16891 -5.79359 -5.20113 -0.674643 -3.8304 -11.3502 -18.3814 -24.2616 -26.1014 
</DataArray>
<DataArray Name="Strain_33" format="ascii" type="Float64">
0 0 0 0 0 0 0 0 0 0 0 0 0 0 0 0 0 0 0 0 0 0 0 0 0 0 0 0 0 0 0 0 0 0 0 0 0 0 0 0 0 0 0 0 0 0 0 0 0 0 0 0 0 0 0 0 0 0 0 0 0 0 0 0 0 0 0 0 0 0 0 0 0 0 0 0 0 0 0 0 0 0 0 0 0 0 0 0 0 0 0 0 0 0 0 0 0 0 0 0 
</DataArray>
<DataArray Name="Stress_11" format="ascii" type="Float64">
-3183.88 -3092.37 -3002.01 -2942.97 -2915.31 -2541.87 -2592.04 -2629.44 -2643.81 -2647.66 -1814.87 -1878.58 -1952.61 -2007.74 -2034.84 -1090.14 -1131.45 -1185.8 -1231.66 -1256.85 -363.219 -377.487 -396.607 -413.291 -422.759 363.219 377.487 396.607 413.291 422.759 1090.14 1131.45 1185.8 1231.66 1256.85 1814.87 1878.58 1952.61 2007.74 2034.84 2541.87 2592.04 2629.44 2643.81 2647.66 3183.88 3092.37 3002.01 2942.97 2915.31 -2915.31 -2942.97 -3002.01 -3092.37 -3183.88 -2647.66 -2643.81 -2629.44 -2592.04 -2541.87 -2034.84 -2007.74 -1952.61 -1878.58 -1814.87 -1256.85 -1231.66 -1185.8 -1131.45 -1090.14 -422.759 -413.291 -396.607 -377.487 -363.219 422.759 413.291 396.607 377.487 363.219 1256.85 1231.66 1185.8 1131.45 1090.14 2034.84 2007.74 1952.61 1878.58 1814.87 2647.66 2643.81 2629.44 2592.04 2541.87 2915.31 2942.97 3002.01 3092.37 3183.88 
</DataArray>
<DataArray Name="Stress_22" format="ascii" type="Float64">
439.008 353.139 355.145 358.547 361.25 413.698 282.098 248.532 251.411 256.442 357.531 213.026 160.167 151.789 154.758 242.304 135.611 90.0417 77.5353 76.8715 85.5535 46.7485 29.1308 23.45 22.5715 -85.5535 -46.7485 -29.1308 -23.45 -22.5715 -242.304 -135.611 -90.0417 -77.5353 -76.8715 -357.531 -213.026 -160.167 -151.789 -154.758 -413.698 -282.098 -248.532 -251.411 -256.442 -439.008 -353.139 -355.145 -358.547 -361.25 361.25 358.547 355.145 353.139 439.008 256.442 251.411 248.532 282.098 413.698 154.758 151.789 160.167 213.026 357.531 76.8715 77.5353 90.0417 135.611 242.304 22.5715 23.45 29.1308 46.7485 85.5535 -22.5715 -23.45 -29.1308 -46.7485 -85.5535 -76.8715 -77.5353 -90.0417 -135.611 -242.304 -154.758 -151.789 -160.167 -213.026 -357.531 -256.442 -251.411 -248.532 -282.098 -413.698 -361.25 -358.547 -355.145 -353.139 -439.008 
</DataArray>
<DataArray Name="Stress_12" format="ascii" type="Float64">
186.766 107.407 80.5866 52.2341 18.1871 185.595 102.191 57.6691 33.7766 11.5263 231.752 173.374 112.837 62.7747 20.2661 266.577 239.714 176.789 104.98 34.514 284.379 275.701 213.824 131.258 43.8475 284.379 275.701 213.824 131.258 43.8475 266.577 239.714 176.789 104.98 34.514 231.752 173.374 112.837 62.7747 20.2661 185.595 102.191 57.6691 33.7766 11.5263 186.766 107.407 80.5866 52.2341 18.1871 -18.1871 -52.2341 -80.5866 -107.407 -186.766 -11.5263 -33.7766 -57.6691 -102.191 -185.595 -20.2661 -62.7747 -112.837 -173.374 -231.752 -34.514 -104.98 -176.789 -239.714 -266.577 -43.8475 -131.258 -213.824 -275.701 -284.379 -43.8475 -131.258 -213.824 -275.701 -284.379 -34.514 -104.98 -176.789 -239.714 -266.577 -20.2661 -62.7747 -112.837 -173.374 -231.752 -11.5263 -33.7766 -57.6691 -102.191 -185.595 -18.1871 -52.2341 -80.5866 -107.407 -186.766 
</DataArray>
<DataArray Name="Stress_13" format="ascii" type="Float64">
-4641.55 -3082.15 -2090.59 -1488.97 -1203.2 -3948.31 -3026.16 -2317.62 -1857.07 -1631.38 -2888.11 -2369.45 -1944.37 -1650.54 -1502.2 -1757.09 -1486.03 -1261.5 -1103.01 -1021.62 -588.948 -504.939 -434.715 -384.811 -359.027 588.948 504.939 434.715 384.811 359.027 1757.09 1486.03 1261.5 1103.01 1021.62 2888.11 2369.45 1944.37 1650.54 1502.2 3948.31 3026.16 2317.62 1857.07 1631.38 4641.55 3082.15 2090.59 1488.97 1203.2 -1203.2 -1488.97 -2090.59 -3082.15 -4641.55 -1631.38 -1857.07 -2317.62 -3026.16 -3948.31 -1502.2 -1650.54 -1944.37 -2369.45 -2888.11 -1021.62 -1103.01 -1261.5 -1486.03 -1757.09 -359.027 -384.811 -434.715 -504.939 -588.948 359.027 384.811 434.715 504.939 588.948 1021.62 1103.01 1261.5 1486.03 1757.09 1502.2 1650.54 1944.37 2369.45 2888.11 1631.38 1857.07 2317.62 3026.16 3948.31 1203.2 1488.97 2090.59 3082.15 4641.55 
</DataArray>
<DataArray Name="Stress_23" format="ascii" type="Float64">
1440.69 1333.12 1009.95 623.849 210.585 53.671 292.988 321.256 230.465 82.5846 -689.473 -348.211 -148.065 -49.9829 -10.4178 -1098.65 -707.463 -422.536 -219.583 -67.4923 -1281.69 -869.728 -548.037 -298.195 -94.1684 -1281.69 -869.728 -548.037 -298.195 -94.1684 -1098.65 -707.463 -422.536 -219.583 -67.4923 -689.473 -348.211 -148.065 -49.9829 -10.4178 53.671 292.988 321.256 230.465 82.5846 1440.69 1333.12 1009.95 623.849 210.585 -210.585 -623.849 -1009.95 -1333.12 -1440.69 -82.5846 -230.465 -321.256 -292.988 -53.671 10.4178 49.9829 148.065 348.211 689.473 67.4923 219.583 422.536 707.463 1098.65 94.1684 298.195 548.037 869.728 1281.69 94.1684 298.195 548.037 869.728 1281.69 67.4923 219.583 422.536 707.463 1098.65 10.4178 49.9829 148.065 348.211 689.473 -82.5846 -230.465 -321.256 -292.988 -53.671 -210.585 -623.849 -1009.95 -1333.12 -1440.69 
</DataArray>
<DataArray Name="Stress_33" format="ascii" type="Float64">
-2973.92 -2224.75 -1728.74 -1426.23 -1282.43 -2477.31 -2077.98 -1757.67 -1542 -1434.75 -1789.49 -1588.13 -1416.17 -1292.87 -1229.02 -1080.12 -983.113 -899.801 -839.17 -807.35 -360.611 -332.056 -307.223 -289.073 -279.521 360.611 332.056 307.223 289.073 279.521 1080.12 983.113 899.801 839.17 807.35 1789.49 1588.13 1416.17 1292.87 1229.02 2477.31 2077.98 1757.67 1542 1434.75 2973.92 2224.75 1728.74 1426.23 1282.43 -1282.43 -1426.23 -1728.74 -2224.75 -2973.92 -1434.75 -1542 -1757.67 -2077.98 -2477.31 -1229.02 -1292.87 -1416.17 -1588.13 -1789.49 -807.35 -839.17 -899.801 -983.113 -1080.12 -279.521 -289.073 -307.223 -332.056 -360.611 279.521 289.073 307.223 332.056 360.611 807.35 839.17 899.801 983.113 1080.12 1229.02 1292.87 1416.17 1588.13 1789.49 1434.75 1542 1757.67 2077.98 2477.31 1282.43 1426.23 1728.74 2224.75 2973.92 
</DataArray>
</CellData>
<Points>
<DataArray NumberOfComponents="3" format="ascii" type="Float64">
-0.05 -0.05 0 -0.05 0 0 -0.05 -0.04 0 -0.05 -0.03 0 -0.05 -0.02 0 -0.05 -0.01 0 0 0 0 -0.04 0 0 -0.03 0 0 -0.02 0 0 -0.01 0 0 0 -0.05 0 0 -0.01 0 0 -0.02 0 0 -0.03 0 0 -0.04 0 -0.01 -0.05 0 -0.02 -0.05 0 -0.03 -0.05 0 -0.04 -0.05 0 -0.04 -0.04 0 -0.04 -0.03 0 -0.04 -0.02 0 -0.04 -0.01 0 -0.03 -0.04 0 -0.03 -0.03 0 -0.03 -0.02 0 -0.03 -0.01 0 -0.02 -0.04 0 -0.02 -0.03 0 -0.02 -0.02 0 -0.02 -0.01 0 -0.01 -0.04 0 -0.01 -0.03 0 -0.01 -0.02 0 -0.01 -0.01 0 -0.05 0.05 0 -0.05 0.01 0 -0.05 0.02 0 -0.05 0.03 0 -0.05 0.04 0 0 0.05 0 -0.04 0.05 0 -0.03 0.05 0 -0.02 0.05 0 -0.01 0.05 0 0 0.04 0 0 0.03 0 0 0.02 0 0 0.01 0 -0.04 0.01 0 -0.04 0.02 0 -0.04 0.03 0 -0.04 0.04 0 -0.03 0.01 0 -0.03 0.02 0 -0.03 0.03 0 -0.03 0.04 0 -0.02 0.01 0 -0.02 0.02 0 -0.02 0.03 0 -0.02 0.04 0 -0.01 0.01 0 -0.01 0.02 0 -0.01 0.03 0 -0.01 0.04 0 0.05 0 0 0.01 0 0 0.02 0 0 0.03 0 0 0.04 0 0 0.05 -0.05 0 0.05 -0.01 0 0.05 -0.02 0 0.05 -0.03 0 0.05 -0.04 0 0.04 -0.05 0 0.03 -0.05 0 0.02 -0.05 0 0.01 -0.05 0 0.01 -0.04 0 0.01 -0.03 0 0.01 -0.02 0 0.01 -0.01 0 0.02 -0.04 0 0.02 -0.03 0 0.02 -0.02 0 0.02 -0.01 0 0.03 -0.04 0 0.03 -0.03 0 0.03 -0.02 0 0.03 -0.01 0 0.04 -0.04 0 0.04 -0.03 0 0.04 -0.02 0 0.04 -0.01 0 0.05 0.05 0 0.01 0.05 0 0.02 0.05 0 0.03 0.05 0 0.04 0.05 0 0.05 0.04 0 0.05 0.03 0 0.05 0.02 0 0.05 0.01 0 0.01 0.01 0 0.01 0.02 0 0.01 0.03 0 0.01 0.04 0 0.02 0.01 0 0.02 0.02 0 0.02 0.03 0 0.02 0.04 0 0.03 0.01 0 0.03 0.02 0 0.03 0.03 0 0.03 0.04 0 0.04 0.01 0 0.04 0.02 0 0.04 0.03 0 0.04 0.04 0 
</DataArray>
</Points>
<Cells>
<DataArray Name="connectivity" format="ascii" type="Int64">
0 19 20 2 19 18 24 20 18 17 28 24 17 16 32 28 16 11 15 32 2 20 21 3 20 24 25 21 24 28 29 25 28 32 33 29 32 15 14 33 3 21 22 4 21 25 26 22 25 29 30 26 29 33 34 30 33 14 13 34 4 22 23 5 22 26 27 23 26 30 31 27 30 34 35 31 34 13 12 35 5 23 7 1 23 27 8 7 27 31 9 8 31 35 10 9 35 12 6 10 1 7 50 37 7 8 54 50 8 9 58 54 9 10 62 58 10 6 49 62 37 50 51 38 50 54 55 51 54 58 59 55 58 62 63 59 62 49 48 63 38 51 52 39 51 55 56 52 55 59 60 56 59 63 64 60 63 48 47 64 39 52 53 40 52 56 57 53 56 60 61 57 60 64 65 61 64 47 46 65 40 53 42 36 53 57 43 42 57 61 44 43 61 65 45 44 65 46 41 45 11 79 80 15 79 78 84 80 78 77 88 84 77 76 92 88 76 71 75 92 15 80 81 14 80 84 85 81 84 88 89 85 88 92 93 89 92 75 74 93 14 81 82 13 81 85 86 82 85 89 90 86 89 93 94 90 93 74 73 94 13 82 83 12 82 86 87 83 86 90 91 87 90 94 95 91 94 73 72 95 12 83 67 6 83 87 68 67 87 91 69 68 91 95 70 69 95 72 66 70 6 67 105 49 67 68 109 105 68 69 113 109 69 70 117 113 70 66 104 117 49 105 106 48 105 109 110 106 109 113 114 110 113 117 118 114 117 104 103 118 48 106 107 47 106 110 111 107 110 114 115 111 114 118 119 115 118 103 102 119 47 107 108 46 107 111 112 108 111 115 116 112 115 119 120 116 119 102 101 120 46 108 97 41 108 112 98 97 112 116 99 98 116 120 100 99 120 101 96 100 
</DataArray>
<DataArray Name="offsets" format="ascii" type="Int64">
4 8 12 16 20 24 28 32 36 40 44 48 52 56 60 64 68 72 76 80 84 88 92 96 100 104 108 112 116 120 124 128 132 136 140 144 148 152 156 160 164 168 172 176 180 184 188 192 196 200 204 208 212 216 220 224 228 232 236 240 244 248 252 256 260 264 268 272 276 280 284 288 292 296 300 304 308 312 316 320 324 328 332 336 340 344 348 352 356 360 364 368 372 376 380 384 388 392 396 400 
</DataArray>
<DataArray Name="types" format="ascii" type="Int8">
9 9 9 9 9 9 9 9 9 9 9 9 9 9 9 9 9 9 9 9 9 9 9 9 9 9 9 9 9 9 9 9 9 9 9 9 9 9 9 9 9 9 9 9 9 9 9 9 9 9 9 9 9 9 9 9 9 9 9 9 9 9 9 9 9 9 9 9 9 9 9 9 9 9 9 9 9 9 9 9 9 9 9 9 9 9 9 9 9 9 9 9 9 9 9 9 9 9 9 9 
</DataArray>
</Cells>
</Piece>
</UnstructuredGrid>
</VTKFile>
