<?xml version="1.0"?>
<VTKFile byte_order="LittleEndian" type="UnstructuredGrid" version="0.1">
<UnstructuredGrid>
<Piece NumberOfCells="100" NumberOfPoints="121">
<PointData>
<DataArray Name="Warping_X" format="ascii" type="Float64">
0.000143333 3.7371e-18 0.00147366 0.00188966 0.00161708 0.000912255 4.58459e-18 4.42895e-18 3.95188e-18 4.89272e-18 4.68983e-18 0.00529059 0.00159748 0.00306001 0.00426441 0.00508284 0.00503754 0.00429573 0.00312083 0.00162877 0.00250719 0.00262347 0.00209467 0.00114804 0.00351247 0.003269 0.0024889 0.00133685 0.00434973 0.00379532 0.00279406 0.00147796 0.0048946 0.00414299 0.00299134 0.00156689 -0.000143333 -0.000912255 -0.00161708 -0.00188966 -0.00147366 -0.00529059 -0.00162877 -0.00312083 -0.00429573 -0.00503754 -0.00508284 -0.00426441 -0.00306001 -0.00159748 -0.00114804 -0.00209467 -0.00262347 -0.00250719 -0.00133685 -0.0024889 -0.003269 -0.00351247 -0.00147796 -0.00279406 -0.00379532 -0.00434973 -0.00156689 -0.00299134 -0.00414299 -0.0048946 2.16391e-18 4.07077e-18 3.40256e-18 1.93707e-18 3.18806e-18 0.000143333 0.000912255 0.00161708 0.00188966 0.00147366 0.00162877 0.00312083 0.00429573 0.00503754 0.0048946 0.00414299 0.00299134 0.00156689 0.00434973 0.00379532 0.00279406 0.00147796 0.00351247 0.003269 0.0024889 0.00133685 0.00250719 0.00262347 0.00209467 0.00114804 -0.000143333 -0.00503754 -0.00429573 -0.00312083 -0.00162877 -0.00147366 -0.00188966 -0.00161708 -0.000912255 -0.00156689 -0.00299134 -0.00414299 -0.0048946 -0.00147796 -0.00279406 -0.00379532 -0.00434973 -0.00133685 -0.0024889 -0.003269 -0.00351247 -0.00114804 -0.00209467 -0.00262347 -0.00250719 
</DataArray>
<DataArray Name="Warping_Y" format="ascii" type="Float64">
0.00371658 0.00558436 0.00443712 0.00495801 0.00530663 0.0055146 -1.16046e-18 0.0038375 0.00246895 0.00143427 0.000650105 2.52545e-18 -5.04743e-19 9.5548e-20 8.14025e-19 1.85691e-18 0.000252114 0.00061781 0.00121582 0.0021785 0.00273677 0.00321275 0.00356061 0.00376843 0.0015833 0.00193763 0.00222569 0.00240744 0.000842105 0.00106381 0.00125872 0.00138903 0.000358133 0.000463886 0.000559871 0.000626502 0.00371658 0.0055146 0.00530663 0.00495801 0.00443712 -7.5012e-19 0.0021785 0.00121582 0.00061781 0.000252114 -1.36103e-18 -1.41385e-18 -1.7375e-18 -1.68717e-18 0.00376843 0.00356061 0.00321275 0.00273677 0.00240744 0.00222569 0.00193763 0.0015833 0.00138903 0.00125872 0.00106381 0.000842105 0.000626502 0.000559871 0.000463886 0.000358133 -0.00558436 -0.000650105 -0.00143427 -0.00246895 -0.0038375 -0.00371658 -0.0055146 -0.00530663 -0.00495801 -0.00443712 -0.0021785 -0.00121582 -0.00061781 -0.000252114 -0.000358133 -0.000463886 -0.000559871 -0.000626502 -0.000842105 -0.00106381 -0.00125872 -0.00138903 -0.0015833 -0.00193763 -0.00222569 -0.00240744 -0.00273677 -0.00321275 -0.00356061 -0.00376843 -0.00371658 -0.000252114 -0.00061781 -0.00121582 -0.0021785 -0.00443712 -0.00495801 -0.00530663 -0.0055146 -0.000626502 -0.000559871 -0.000463886 -0.000358133 -0.00138903 -0.00125872 -0.00106381 -0.000842105 -0.00240744 -0.00222569 -0.00193763 -0.0015833 -0.00376843 -0.00356061 -0.00321275 -0.00273677 
</DataArray>
<DataArray Name="Warping_Z" format="ascii" type="Float64">
0 0 0 0 0 0 0 0 0 0 0 0 0 0 0 0 0 0 0 0 0 0 0 0 0 0 0 0 0 0 0 0 0 0 0 0 0 0 0 0 0 0 0 0 0 0 0 0 0 0 0 0 0 0 0 0 0 0 0 0 0 0 0 0 0 0 0 0 0 0 0 0 0 0 0 0 0 0 0 0 0 0 0 0 0 0 0 0 0 0 0 0 0 0 0 0 0 0 0 0 0 0 0 0 0 0 0 0 0 0 0 0 0 0 0 0 0 0 0 0 0 
</DataArray>
</PointData>
<CellData>
<DataArray Name="MaterialId" format="ascii" type="Float64">
3 3 3 3 3 3 3 3 3 3 3 3 3 3 3 3 3 3 3 3 3 3 3 3 3 3 3 3 3 3 3 3 3 3 3 3 3 3 3 3 3 3 3 3 3 3 3 3 3 3 3 3 3 3 3 3 3 3 3 3 3 3 3 3 3 3 3 3 3 3 3 3 3 3 3 3 3 3 3 3 3 3 3 3 3 3 3 3 3 3 3 3 3 3 3 3 3 3 3 3 
</DataArray>
<DataArray Name="FiberAngle" format="ascii" type="Float64">
45 45 45 45 45 45 45 45 45 45 45 45 45 45 45 45 45 45 45 45 45 45 45 45 45 45 45 45 45 45 45 45 45 45 45 45 45 45 45 45 45 45 45 45 45 45 45 45 45 45 45 45 45 45 45 45 45 45 45 45 45 45 45 45 45 45 45 45 45 45 45 45 45 45 45 45 45 45 45 45 45 45 45 45 45 45 45 45 45 45 45 45 45 45 45 45 45 45 45 45 
</DataArray>
<DataArray Name="Strain_11" format="ascii" type="Float64">
0.125949 0.124867 0.100608 0.0643343 0.0220642 0.0883671 0.0825404 0.0681789 0.0446274 0.0154832 0.0605701 0.0519882 0.041574 0.0272476 0.00950468 0.0356686 0.0291524 0.0223136 0.0143101 0.00496331 0.0117891 0.00944062 0.00705556 0.00444635 0.00152969 -0.0117891 -0.00944062 -0.00705556 -0.00444635 -0.00152969 -0.0356686 -0.0291524 -0.0223136 -0.0143101 -0.00496331 -0.0605701 -0.0519882 -0.041574 -0.0272476 -0.00950468 -0.0883671 -0.0825404 -0.0681789 -0.0446274 -0.0154832 -0.125949 -0.124867 -0.100608 -0.0643343 -0.0220642 -0.0220642 -0.0643343 -0.100608 -0.124867 -0.125949 -0.0154832 -0.0446274 -0.0681789 -0.0825404 -0.0883671 -0.00950468 -0.0272476 -0.041574 -0.0519882 -0.0605701 -0.00496331 -0.0143101 -0.0223136 -0.0291524 -0.0356686 -0.00152969 -0.00444635 -0.00705556 -0.00944062 -0.0117891 0.00152969 0.00444635 0.00705556 0.00944062 0.0117891 0.00496331 0.0143101 0.0223136 0.0291524 0.0356686 0.00950468 0.0272476 0.041574 0.0519882 0.0605701 0.0154832 0.0446274 0.0681789 0.0825404 0.0883671 0.0220642 0.0643343 0.100608 0.124867 0.125949 
</DataArray>
<DataArray Name="Strain_22" format="ascii" type="Float64">
0.0639401 0.0462874 0.0295888 0.0165157 0.00530093 0.0498435 0.0415156 0.0288021 0.0163731 0.00528764 0.034824 0.0317963 0.0241483 0.0145443 0.00479927 0.0207896 0.0194782 0.0156028 0.00984719 0.00333156 0.00694171 0.00652917 0.0053375 0.00344219 0.00118012 -0.00694171 -0.00652917 -0.0053375 -0.00344219 -0.00118012 -0.0207896 -0.0194782 -0.0156028 -0.00984719 -0.00333156 -0.034824 -0.0317963 -0.0241483 -0.0145443 -0.00479927 -0.0498435 -0.0415156 -0.0288021 -0.0163731 -0.00528764 -0.0639401 -0.0462874 -0.0295888 -0.0165157 -0.00530093 -0.00530093 -0.0165157 -0.0295888 -0.0462874 -0.0639401 -0.00528764 -0.0163731 -0.0288021 -0.0415156 -0.0498435 -0.00479927 -0.0145443 -0.0241483 -0.0317963 -0.034824 -0.00333156 -0.00984719 -0.0156028 -0.0194782 -0.0207896 -0.00118012 -0.00344219 -0.0053375 -0.00652917 -0.00694171 0.00118012 0.00344219 0.0053375 0.00652917 0.00694171 0.00333156 0.00984719 0.0156028 0.0194782 0.0207896 0.00479927 0.0145443 0.0241483 0.0317963 0.034824 0.00528764 0.0163731 0.0288021 0.0415156 0.0498435 0.00530093 0.0165157 0.0295888 0.0462874 0.0639401 
</DataArray>
<DataArray Name="Strain_12" format="ascii" type="Float64">
-0.0514844 -0.0423043 -0.0446782 -0.0469305 -0.0480466 -0.145667 -0.127789 -0.120645 -0.119496 -0.119603 -0.214633 -0.195946 -0.181107 -0.172584 -0.168991 -0.257182 -0.239729 -0.222677 -0.210096 -0.203668 -0.277666 -0.260722 -0.243395 -0.229577 -0.222049 -0.277666 -0.260722 -0.243395 -0.229577 -0.222049 -0.257182 -0.239729 -0.222677 -0.210096 -0.203668 -0.214633 -0.195946 -0.181107 -0.172584 -0.168991 -0.145667 -0.127789 -0.120645 -0.119496 -0.119603 -0.0514844 -0.0423043 -0.0446782 -0.0469305 -0.0480466 -0.0480466 -0.0469305 -0.0446782 -0.0423043 -0.0514844 -0.119603 -0.119496 -0.120645 -0.127789 -0.145667 -0.168991 -0.172584 -0.181107 -0.195946 -0.214633 -0.203668 -0.210096 -0.222677 -0.239729 -0.257182 -0.222049 -0.229577 -0.243395 -0.260722 -0.277666 -0.222049 -0.229577 -0.243395 -0.260722 -0.277666 -0.203668 -0.210096 -0.222677 -0.239729 -0.257182 -0.168991 -0.172584 -0.181107 -0.195946 -0.214633 -0.119603 -0.119496 -0.120645 -0.127789 -0.145667 -0.0480466 -0.0469305 -0.0446782 -0.0423043 -0.0514844 
</DataArray>
<DataArray Name="Strain_13" format="ascii" type="Float64">
0.116673 0.0171797 -0.0202073 -0.0237974 -0.00977552 0.123001 0.0646773 0.0261714 0.00755901 0.00117098 0.0926447 0.060736 0.0346311 0.0165384 0.00475173 0.0570845 0.0401683 0.0253334 0.0134443 0.00414205 0.0192015 0.0138855 0.00906198 0.00497762 0.00156827 -0.0192015 -0.0138855 -0.00906198 -0.00497762 -0.00156827 -0.0570845 -0.0401683 -0.0253334 -0.0134443 -0.00414205 -0.0926447 -0.060736 -0.0346311 -0.0165384 -0.00475173 -0.123001 -0.0646773 -0.0261714 -0.00755901 -0.00117098 -0.116673 -0.0171797 0.0202073 0.0237974 0.00977552 0.00977552 0.0237974 0.0202073 -0.0171797 -0.116673 -0.00117098 -0.00755901 -0.0261714 -0.0646773 -0.123001 -0.00475173 -0.0165384 -0.0346311 -0.060736 -0.0926447 -0.00414205 -0.0134443 -0.0253334 -0.0401683 -0.0570845 -0.00156827 -0.00497762 -0.00906198 -0.0138855 -0.0192015 0.00156827 0.00497762 0.00906198 0.0138855 0.0192015 0.00414205 0.0134443 0.0253334 0.0401683 0.0570845 0.00475173 0.0165384 0.0346311 0.060736 0.0926447 0.00117098 0.00755901 0.0261714 0.0646773 0.123001 -0.00977552 -0.0237974 -0.0202073 0.0171797 0.116673 
</DataArray>
<DataArray Name="Strain_23" format="ascii" type="Float64">
-0.463023 -0.567669 -0.614726 -0.640323 -0.651908 0.533019 0.355539 0.244097 0.179044 0.148709 1.2312 1.03762 0.900993 0.815058 0.773727 1.68623 1.48647 1.3404 1.24541 1.19878 1.91154 1.70971 1.56026 1.4619 1.4132 1.91154 1.70971 1.56026 1.4619 1.4132 1.68623 1.48647 1.3404 1.24541 1.19878 1.2312 1.03762 0.900993 0.815058 0.773727 0.533019 0.355539 0.244097 0.179044 0.148709 -0.463023 -0.567669 -0.614726 -0.640323 -0.651908 -0.651908 -0.640323 -0.614726 -0.567669 -0.463023 0.148709 0.179044 0.244097 0.355539 0.533019 0.773727 0.815058 0.900993 1.03762 1.2312 1.19878 1.24541 1.3404 1.48647 1.68623 1.4132 1.4619 1.56026 1.70971 1.91154 1.4132 1.4619 1.56026 1.70971 1.91154 1.19878 1.24541 1.3404 1.48647 1.68623 0.773727 0.815058 0.900993 1.03762 1.2312 0.148709 0.179044 0.244097 0.355539 0.533019 -0.651908 -0.640323 -0.614726 -0.567669 -0.463023 
</DataArray>
<DataArray Name="Strain_33" format="ascii" type="Float64">
-0.379516 -0.29518 -0.21085 -0.126514 -0.0421719 -0.295119 -0.229563 -0.163986 -0.0983956 -0.0327992 -0.210763 -0.16395 -0.117123 -0.0702804 -0.0234278 -0.126446 -0.0983584 -0.0702662 -0.042165 -0.0140559 -0.0421467 -0.0327843 -0.0234205 -0.0140541 -0.00468506 0.0421467 0.0327843 0.0234205 0.0140541 0.00468506 0.126446 0.0983584 0.0702662 0.042165 0.0140559 0.210763 0.16395 0.117123 0.0702804 0.0234278 0.295119 0.229563 0.163986 0.0983956 0.0327992 0.379516 0.29518 0.21085 0.126514 0.0421719 0.0421719 0.126514 0.21085 0.29518 0.379516 0.0327992 0.0983956 0.163986 0.229563 0.295119 0.0234278 0.0702804 0.117123 0.16395 0.210763 0.0140559 0.042165 0.0702662 0.0983584 0.126446 0.00468506 0.0140541 0.0234205 0.0327843 0.0421467 -0.00468506 -0.0140541 -0.0234205 -0.0327843 -0.0421467 -0.0140559 -0.042165 -0.0702662 -0.0983584 -0.126446 -0.0234278 -0.0702804 -0.117123 -0.16395 -0.210763 -0.0327992 -0.0983956 -0.163986 -0.229563 -0.295119 -0.0421719 -0.126514 -0.21085 -0.29518 -0.379516 
</DataArray>
<DataArray Name="Stress_11" format="ascii" type="Float64">
-0.470064 -0.897349 -1.04891 -0.806667 -0.298896 0.337677 0.749671 0.831261 0.593398 0.210799 0.0613268 0.309817 0.504862 0.454184 0.178626 0.0140043 0.0648524 0.143539 0.15666 0.0678461 -0.00230728 0.00376117 0.019879 0.027567 0.0130433 0.00230728 -0.00376117 -0.019879 -0.027567 -0.0130433 -0.0140043 -0.0648524 -0.143539 -0.15666 -0.0678461 -0.0613268 -0.309817 -0.504862 -0.454184 -0.178626 -0.337677 -0.749671 -0.831261 -0.593398 -0.210799 0.470064 0.897349 1.04891 0.806667 0.298896 0.298896 0.806667 1.04891 0.897349 0.470064 -0.210799 -0.593398 -0.831261 -0.749671 -0.337677 -0.178626 -0.454184 -0.504862 -0.309817 -0.0613268 -0.0678461 -0.15666 -0.143539 -0.0648524 -0.0140043 -0.0130433 -0.027567 -0.019879 -0.00376117 0.00230728 0.0130433 0.027567 0.019879 0.00376117 -0.00230728 0.0678461 0.15666 0.143539 0.0648524 0.0140043 0.178626 0.454184 0.504862 0.309817 0.0613268 0.210799 0.593398 0.831261 0.749671 0.337677 -0.298896 -0.806667 -1.04891 -0.897349 -0.470064 
</DataArray>
<DataArray Name="Stress_22" format="ascii" type="Float64">
-0.372703 0.305962 0.210547 0.120355 0.0377628 -0.657908 0.370421 0.501174 0.322519 0.108255 -0.665341 0.283313 0.555612 0.425908 0.151196 -0.438004 0.14701 0.382117 0.326909 0.122509 -0.148097 0.0435731 0.131248 0.118064 0.0453937 0.148097 -0.0435731 -0.131248 -0.118064 -0.0453937 0.438004 -0.14701 -0.382117 -0.326909 -0.122509 0.665341 -0.283313 -0.555612 -0.425908 -0.151196 0.657908 -0.370421 -0.501174 -0.322519 -0.108255 0.372703 -0.305962 -0.210547 -0.120355 -0.0377628 -0.0377628 -0.120355 -0.210547 -0.305962 0.372703 -0.108255 -0.322519 -0.501174 -0.370421 0.657908 -0.151196 -0.425908 -0.555612 -0.283313 0.665341 -0.122509 -0.326909 -0.382117 -0.14701 0.438004 -0.0453937 -0.118064 -0.131248 -0.0435731 0.148097 0.0453937 0.118064 0.131248 0.0435731 -0.148097 0.122509 0.326909 0.382117 0.14701 -0.438004 0.151196 0.425908 0.555612 0.283313 -0.665341 0.108255 0.322519 0.501174 0.370421 -0.657908 0.0377628 0.120355 0.210547 0.305962 -0.372703 
</DataArray>
<DataArray Name="Stress_12" format="ascii" type="Float64">
-5.14676 -5.16508 -5.53093 -5.78279 -5.9021 -5.3466 -5.25072 -5.41499 -5.67707 -5.83462 -5.64884 -5.58897 -5.45593 -5.41684 -5.42586 -5.71387 -5.75275 -5.54523 -5.32822 -5.20784 -5.71393 -5.79111 -5.58543 -5.31722 -5.14666 -5.71393 -5.79111 -5.58543 -5.31722 -5.14666 -5.71387 -5.75275 -5.54523 -5.32822 -5.20784 -5.64884 -5.58897 -5.45593 -5.41684 -5.42586 -5.3466 -5.25072 -5.41499 -5.67707 -5.83462 -5.14676 -5.16508 -5.53093 -5.78279 -5.9021 -5.9021 -5.78279 -5.53093 -5.16508 -5.14676 -5.83462 -5.67707 -5.41499 -5.25072 -5.3466 -5.42586 -5.41684 -5.45593 -5.58897 -5.64884 -5.20784 -5.32822 -5.54523 -5.75275 -5.71387 -5.14666 -5.31722 -5.58543 -5.79111 -5.71393 -5.14666 -5.31722 -5.58543 -5.79111 -5.71393 -5.20784 -5.32822 -5.54523 -5.75275 -5.71387 -5.42586 -5.41684 -5.45593 -5.58897 -5.64884 -5.83462 -5.67707 -5.41499 -5.25072 -5.3466 -5.9021 -5.78279 -5.53093 -5.16508 -5.14676 
</DataArray>
<DataArray Name="Stress_13" format="ascii" type="Float64">
-6.7052 -13.0696 -12.8416 -8.97727 -3.19397 -1.56404 -4.31214 -5.04825 -3.83081 -1.41048 -0.67305 -1.67787 -2.02607 -1.6015 -0.602166 -0.253857 -0.66944 -0.817565 -0.654305 -0.248304 -0.0692845 -0.178664 -0.220793 -0.178156 -0.0679073 0.0692845 0.178664 0.220793 0.178156 0.0679073 0.253857 0.66944 0.817565 0.654305 0.248304 0.67305 1.67787 2.02607 1.6015 0.602166 1.56404 4.31214 5.04825 3.83081 1.41048 6.7052 13.0696 12.8416 8.97727 3.19397 3.19397 8.97727 12.8416 13.0696 6.7052 1.41048 3.83081 5.04825 4.31214 1.56404 0.602166 1.6015 2.02607 1.67787 0.67305 0.248304 0.654305 0.817565 0.66944 0.253857 0.0679073 0.178156 0.220793 0.178664 0.0692845 -0.0679073 -0.178156 -0.220793 -0.178664 -0.0692845 -0.248304 -0.654305 -0.817565 -0.66944 -0.253857 -0.602166 -1.6015 -2.02607 -1.67787 -0.67305 -1.41048 -3.83081 -5.04825 -4.31214 -1.56404 -3.19397 -8.97727 -12.8416 -13.0696 -6.7052 
</DataArray>
<DataArray Name="Stress_23" format="ascii" type="Float64">
-25.7237 -31.4333 -34.0333 -35.4524 -36.0952 28.5877 18.9157 12.8221 9.24993 7.581 66.6426 56.0892 48.6491 43.9653 41.71 91.4566 80.5572 72.6088 67.4473 64.9144 103.746 92.7306 84.5973 79.2568 76.616 103.746 92.7306 84.5973 79.2568 76.616 91.4566 80.5572 72.6088 67.4473 64.9144 66.6426 56.0892 48.6491 43.9653 41.71 28.5877 18.9157 12.8221 9.24993 7.581 -25.7237 -31.4333 -34.0333 -35.4524 -36.0952 -36.0952 -35.4524 -34.0333 -31.4333 -25.7237 7.581 9.24993 12.8221 18.9157 28.5877 41.71 43.9653 48.6491 56.0892 66.6426 64.9144 67.4473 72.6088 80.5572 91.4566 76.616 79.2568 84.5973 92.7306 103.746 76.616 79.2568 84.5973 92.7306 103.746 64.9144 67.4473 72.6088 80.5572 91.4566 41.71 43.9653 48.6491 56.0892 66.6426 7.581 9.24993 12.8221 18.9157 28.5877 -36.0952 -35.4524 -34.0333 -31.4333 -25.7237 
</DataArray>
<DataArray Name="Stress_33" format="ascii" type="Float64">
-61.1258 -51.303 -38.4239 -23.7084 -8.00723 -45.6806 -36.7027 -27.0285 -16.5694 -5.58308 -32.4987 -25.6027 -18.5388 -11.2492 -3.77327 -19.4397 -15.2365 -10.966 -6.62036 -2.21446 -6.4746 -5.06323 -3.63725 -2.19249 -0.732726 6.4746 5.06323 3.63725 2.19249 0.732726 19.4397 15.2365 10.966 6.62036 2.21446 32.4987 25.6027 18.5388 11.2492 3.77327 45.6806 36.7027 27.0285 16.5694 5.58308 61.1258 51.303 38.4239 23.7084 8.00723 8.00723 23.7084 38.4239 51.303 61.1258 5.58308 16.5694 27.0285 36.7027 45.6806 3.77327 11.2492 18.5388 25.6027 32.4987 2.21446 6.62036 10.966 15.2365 19.4397 0.732726 2.19249 3.63725 5.06323 6.4746 -0.732726 -2.19249 -3.63725 -5.06323 -6.4746 -2.21446 -6.62036 -10.966 -15.2365 -19.4397 -3.77327 -11.2492 -18.5388 -25.6027 -32.4987 -5.58308 -16.5694 -27.0285 -36.7027 -45.6806 -8.00723 -23.7084 -38.4239 -51.303 -61.1258 
</DataArray>
</CellData>
<Points>
<DataArray NumberOfComponents="3" format="ascii" type="Float64">
-0.05 -0.05 0 -0.05 0 0 -0.05 -0.04 0 -0.05 -0.03 0 -0.05 -0.02 0 -0.05 -0.01 0 0 0 0 -0.04 0 0 -0.03 0 0 -0.02 0 0 -0.01 0 0 0 -0.05 0 0 -0.01 0 0 -0.02 0 0 -0.03 0 0 -0.04 0 -0.01 -0.05 0 -0.02 -0.05 0 -0.03 -0.05 0 -0.04 -0.05 0 -0.04 -0.04 0 -0.04 -0.03 0 -0.04 -0.02 0 -0.04 -0.01 0 -0.03 -0.04 0 -0.03 -0.03 0 -0.03 -0.02 0 -0.03 -0.01 0 -0.02 -0.04 0 -0.02 -0.03 0 -0.02 -0.02 0 -0.02 -0.01 0 -0.01 -0.04 0 -0.01 -0.03 0 -0.01 -0.02 0 -0.01 -0.01 0 -0.05 0.05 0 -0.05 0.01 0 -0.05 0.02 0 -0.05 0.03 0 -0.05 0.04 0 0 0.05 0 -0.04 0.05 0 -0.03 0.05 0 -0.02 0.05 0 -0.01 0.05 0 0 0.04 0 0 0.03 0 0 0.02 0 0 0.01 0 -0.04 0.01 0 -0.04 0.02 0 -0.04 0.03 0 -0.04 0.04 0 -0.03 0.01 0 -0.03 0.02 0 -0.03 0.03 0 -0.03 0.04 0 -0.02 0.01 0 -0.02 0.02 0 -0.02 0.03 0 -0.02 0.04 0 -0.01 0.01 0 -0.01 0.02 0 -0.01 0.03 0 -0.01 0.04 0 0.05 0 0 0.01 0 0 0.02 0 0 0.03 0 0 0.04 0 0 0.05 -0.05 0 0.05 -0.01 0 0.05 -0.02 0 0.05 -0.03 0 0.05 -0.04 0 0.04 -0.05 0 0.03 -0.05 0 0.02 -0.05 0 0.01 -0.05 0 0.01 -0.04 0 0.01 -0.03 0 0.01 -0.02 0 0.01 -0.01 0 0.02 -0.04 0 0.02 -0.03 0 0.02 -0.02 0 0.02 -0.01 0 0.03 -0.04 0 0.03 -0.03 0 0.03 -0.02 0 0.03 -0.01 0 0.04 -0.04 0 0.04 -0.03 0 0.04 -0.02 0 0.04 -0.01 0 0.05 0.05 0 0.01 0.05 0 0.02 0.05 0 0.03 0.05 0 0.04 0.05 0 0.05 0.04 0 0.05 0.03 0 0.05 0.02 0 0.05 0.01 0 0.01 0.01 0 0.01 0.02 0 0.01 0.03 0 0.01 0.04 0 0.02 0.01 0 0.02 0.02 0 0.02 0.03 0 0.02 0.04 0 0.03 0.01 0 0.03 0.02 0 0.03 0.03 0 0.03 0.04 0 0.04 0.01 0 0.04 0.02 0 0.04 0.03 0 0.04 0.04 0 
</DataArray>
</Points>
<Cells>
<DataArray Name="connectivity" format="ascii" type="Int64">
0 19 20 2 19 18 24 20 18 17 28 24 17 16 32 28 16 11 15 32 2 20 21 3 20 24 25 21 24 28 29 25 28 32 33 29 32 15 14 33 3 21 22 4 21 25 26 22 25 29 30 26 29 33 34 30 33 14 13 34 4 22 23 5 22 26 27 23 26 30 31 27 30 34 35 31 34 13 12 35 5 23 7 1 23 27 8 7 27 31 9 8 31 35 10 9 35 12 6 10 1 7 50 37 7 8 54 50 8 9 58 54 9 10 62 58 10 6 49 62 37 50 51 38 50 54 55 51 54 58 59 55 58 62 63 59 62 49 48 63 38 51 52 39 51 55 56 52 55 59 60 56 59 63 64 60 63 48 47 64 39 52 53 40 52 56 57 53 56 60 61 57 60 64 65 61 64 47 46 65 40 53 42 36 53 57 43 42 57 61 44 43 61 65 45 44 65 46 41 45 11 79 80 15 79 78 84 80 78 77 88 84 77 76 92 88 76 71 75 92 15 80 81 14 80 84 85 81 84 88 89 85 88 92 93 89 92 75 74 93 14 81 82 13 81 85 86 82 85 89 90 86 89 93 94 90 93 74 73 94 13 82 83 12 82 86 87 83 86 90 91 87 90 94 95 91 94 73 72 95 12 83 67 6 83 87 68 67 87 91 69 68 91 95 70 69 95 72 66 70 6 67 105 49 67 68 109 105 68 69 113 109 69 70 117 113 70 66 104 117 49 105 106 48 105 109 110 106 109 113 114 110 113 117 118 114 117 104 103 118 48 106 107 47 106 110 111 107 110 114 115 111 114 118 119 115 118 103 102 119 47 107 108 46 107 111 112 108 111 115 116 112 115 119 120 116 119 102 101 120 46 108 97 41 108 112 98 97 112 116 99 98 116 120 100 99 120 101 96 100 
</DataArray>
<DataArray Name="offsets" format="ascii" type="Int64">
4 8 12 16 20 24 28 32 36 40 44 48 52 56 60 64 68 72 76 80 84 88 92 96 100 104 108 112 116 120 124 128 132 136 140 144 148 152 156 160 164 168 172 176 180 184 188 192 196 200 204 208 212 216 220 224 228 232 236 240 244 248 252 256 260 264 268 272 276 280 284 288 292 296 300 304 308 312 316 320 324 328 332 336 340 344 348 352 356 360 364 368 372 376 380 384 388 392 396 400 
</DataArray>
<DataArray Name="types" format="ascii" type="Int8">
9 9 9 9 9 9 9 9 9 9 9 9 9 9 9 9 9 9 9 9 9 9 9 9 9 9 9 9 9 9 9 9 9 9 9 9 9 9 9 9 9 9 9 9 9 9 9 9 9 9 9 9 9 9 9 9 9 9 9 9 9 9 9 9 9 9 9 9 9 9 9 9 9 9 9 9 9 9 9 9 9 9 9 9 9 9 9 9 9 9 9 9 9 9 9 9 9 9 9 9 
</DataArray>
</Cells>
</Piece>
</UnstructuredGrid>
</VTKFile>
