<?xml version="1.0"?>
<VTKFile byte_order="LittleEndian" type="UnstructuredGrid" version="0.1">
<UnstructuredGrid>
<Piece NumberOfCells="100" NumberOfPoints="121">
<PointData>
<DataArray Name="Warping_X" format="ascii" type="Float64">
0.0432666 0.234094 0.111833 0.16531 0.203521 0.226451 -0.0287271 0.139472 0.0658802 0.0133186 -0.018216 -0.219783 -0.0363666 -0.059285 -0.0974839 -0.150974 -0.209262 -0.177698 -0.125086 -0.0514221 0.0172152 0.0706868 0.108899 0.131829 -0.0563544 -0.00289289 0.0353116 0.0582377 -0.108918 -0.0554427 -0.0172441 0.00567765 -0.140459 -0.0869735 -0.0487749 -0.0258559 0.0432666 0.226451 0.203521 0.16531 0.111833 -0.219783 -0.0514221 -0.125086 -0.177698 -0.209262 -0.150974 -0.0974839 -0.059285 -0.0363666 0.131829 0.108899 0.0706868 0.0172152 0.0582377 0.0353116 -0.00289289 -0.0563544 0.00567765 -0.0172441 -0.0554427 -0.108918 -0.0258559 -0.0487749 -0.0869735 -0.140459 0.234094 -0.018216 0.0133186 0.0658802 0.139472 0.0432666 0.226451 0.203521 0.16531 0.111833 -0.0514221 -0.125086 -0.177698 -0.209262 -0.140459 -0.0869735 -0.0487749 -0.0258559 -0.108918 -0.0554427 -0.0172441 0.00567765 -0.0563544 -0.00289289 0.0353116 0.0582377 0.0172152 0.0706868 0.108899 0.131829 0.0432666 -0.209262 -0.177698 -0.125086 -0.0514221 0.111833 0.16531 0.203521 0.226451 -0.0258559 -0.0487749 -0.0869735 -0.140459 0.00567765 -0.0172441 -0.0554427 -0.108918 0.0582377 0.0353116 -0.00289289 -0.0563544 0.131829 0.108899 0.0706868 0.0172152 
</DataArray>
<DataArray Name="Warping_Y" format="ascii" type="Float64">
0.381734 3.61555e-17 0.305543 0.229213 0.152825 0.0764157 -1.15782e-17 4.04223e-17 2.20517e-17 1.35116e-17 -1.214e-17 1.06996e-16 3.07697e-17 4.59142e-17 5.20487e-17 8.6268e-17 0.0764823 0.152951 0.229384 0.305754 0.244546 0.183399 0.122267 0.0611344 0.183492 0.137595 0.0917201 0.0458579 0.122354 0.091754 0.061161 0.0305779 0.0611839 0.0458833 0.0305852 0.0152912 -0.381734 -0.0764157 -0.152825 -0.229213 -0.305543 -1.40757e-16 -0.305754 -0.229384 -0.152951 -0.0764823 -1.38285e-16 -1.2722e-16 -1.01095e-16 -5.87465e-17 -0.0611344 -0.122267 -0.183399 -0.244546 -0.0458579 -0.0917201 -0.137595 -0.183492 -0.0305779 -0.061161 -0.091754 -0.122354 -0.0152912 -0.0305852 -0.0458833 -0.0611839 2.71239e-18 -6.87663e-18 4.01029e-18 3.23449e-17 2.08323e-17 -0.381734 -0.0764157 -0.152825 -0.229213 -0.305543 -0.305754 -0.229384 -0.152951 -0.0764823 -0.0611839 -0.0458833 -0.0305852 -0.0152912 -0.122354 -0.091754 -0.061161 -0.0305779 -0.183492 -0.137595 -0.0917201 -0.0458579 -0.244546 -0.183399 -0.122267 -0.0611344 0.381734 0.0764823 0.152951 0.229384 0.305754 0.305543 0.229213 0.152825 0.0764157 0.0152912 0.0305852 0.0458833 0.0611839 0.0305779 0.061161 0.091754 0.122354 0.0458579 0.0917201 0.137595 0.183492 0.0611344 0.122267 0.183399 0.244546 
</DataArray>
<DataArray Name="Warping_Z" format="ascii" type="Float64">
0 0 0 0 0 0 0 0 0 0 0 0 0 0 0 0 0 0 0 0 0 0 0 0 0 0 0 0 0 0 0 0 0 0 0 0 0 0 0 0 0 0 0 0 0 0 0 0 0 0 0 0 0 0 0 0 0 0 0 0 0 0 0 0 0 0 0 0 0 0 0 0 0 0 0 0 0 0 0 0 0 0 0 0 0 0 0 0 0 0 0 0 0 0 0 0 0 0 0 0 0 0 0 0 0 0 0 0 0 0 0 0 0 0 0 0 0 0 0 0 0 
</DataArray>
</PointData>
<CellData>
<DataArray Name="MaterialId" format="ascii" type="Float64">
3 3 3 3 3 3 3 3 3 3 3 3 3 3 3 3 3 3 3 3 3 3 3 3 3 3 3 3 3 3 3 3 3 3 3 3 3 3 3 3 3 3 3 3 3 3 3 3 3 3 3 3 3 3 3 3 3 3 3 3 3 3 3 3 3 3 3 3 3 3 3 3 3 3 3 3 3 3 3 3 3 3 3 3 3 3 3 3 3 3 3 3 3 3 3 3 3 3 3 3 
</DataArray>
<DataArray Name="FiberAngle" format="ascii" type="Float64">
45 45 45 45 45 45 45 45 45 45 45 45 45 45 45 45 45 45 45 45 45 45 45 45 45 45 45 45 45 45 45 45 45 45 45 45 45 45 45 45 45 45 45 45 45 45 45 45 45 45 45 45 45 45 45 45 45 45 45 45 45 45 45 45 45 45 45 45 45 45 45 45 45 45 45 45 45 45 45 45 45 45 45 45 45 45 45 45 45 45 45 45 45 45 45 45 45 45 45 45 
</DataArray>
<DataArray Name="Strain_11" format="ascii" type="Float64">
-9.4653 -7.36167 -5.25877 -3.1553 -1.05177 -9.46203 -7.35747 -5.25567 -3.15361 -1.05124 -9.46228 -7.35836 -5.25527 -3.15308 -1.05103 -9.46222 -7.35891 -5.25579 -3.15322 -1.05104 -9.4622 -7.35912 -5.25608 -3.15341 -1.05109 -9.4622 -7.35912 -5.25608 -3.15341 -1.05109 -9.46222 -7.35891 -5.25579 -3.15322 -1.05104 -9.46228 -7.35836 -5.25527 -3.15308 -1.05103 -9.46203 -7.35747 -5.25567 -3.15361 -1.05124 -9.4653 -7.36167 -5.25877 -3.1553 -1.05177 1.05177 3.1553 5.25877 7.36167 9.4653 1.05124 3.15361 5.25567 7.35747 9.46203 1.05103 3.15308 5.25527 7.35836 9.46228 1.05104 3.15322 5.25579 7.35891 9.46222 1.05109 3.15341 5.25608 7.35912 9.4622 1.05109 3.15341 5.25608 7.35912 9.4622 1.05104 3.15322 5.25579 7.35891 9.46222 1.05103 3.15308 5.25527 7.35836 9.46228 1.05124 3.15361 5.25567 7.35747 9.46203 1.05177 3.1553 5.25877 7.36167 9.4653 
</DataArray>
<DataArray Name="Strain_22" format="ascii" type="Float64">
-6.86999 -5.35503 -3.82448 -2.2948 -0.764921 -6.87383 -5.35222 -3.82486 -2.29501 -0.765026 -6.87601 -5.35031 -3.82339 -2.29456 -0.764905 -6.87709 -5.34976 -3.82227 -2.29385 -0.764701 -6.87751 -5.34962 -3.82179 -2.29345 -0.76456 -6.87751 -5.34962 -3.82179 -2.29345 -0.76456 -6.87709 -5.34976 -3.82227 -2.29385 -0.764701 -6.87601 -5.35031 -3.82339 -2.29456 -0.764905 -6.87383 -5.35222 -3.82486 -2.29501 -0.765026 -6.86999 -5.35503 -3.82448 -2.2948 -0.764921 0.764921 2.2948 3.82448 5.35503 6.86999 0.765026 2.29501 3.82486 5.35222 6.87383 0.764905 2.29456 3.82339 5.35031 6.87601 0.764701 2.29385 3.82227 5.34976 6.87709 0.76456 2.29345 3.82179 5.34962 6.87751 0.76456 2.29345 3.82179 5.34962 6.87751 0.764701 2.29385 3.82227 5.34976 6.87709 0.764905 2.29456 3.82339 5.35031 6.87601 0.765026 2.29501 3.82486 5.35222 6.87383 0.764921 2.2948 3.82448 5.35503 6.86999 
</DataArray>
<DataArray Name="Strain_12" format="ascii" type="Float64">
0.0112964 -0.0027368 -0.0030276 -0.00283482 -0.00269722 0.00686016 0.00378974 -0.00212339 -0.00395921 -0.00456729 0.00259073 0.00327175 0.000152988 -0.00246334 -0.00355213 0.00100399 0.00159287 0.00043512 -0.00108217 -0.00194981 0.000262644 0.000460431 0.000166839 -0.00029522 -0.000594694 -0.000262644 -0.000460431 -0.000166839 0.00029522 0.000594694 -0.00100399 -0.00159287 -0.00043512 0.00108217 0.00194981 -0.00259073 -0.00327175 -0.000152988 0.00246334 0.00355213 -0.00686016 -0.00378974 0.00212339 0.00395921 0.00456729 -0.0112964 0.0027368 0.0030276 0.00283482 0.00269722 -0.00269722 -0.00283482 -0.0030276 -0.0027368 0.0112964 -0.00456729 -0.00395921 -0.00212339 0.00378974 0.00686016 -0.00355213 -0.00246334 0.000152988 0.00327175 0.00259073 -0.00194981 -0.00108217 0.00043512 0.00159287 0.00100399 -0.000594694 -0.00029522 0.000166839 0.000460431 0.000262644 0.000594694 0.00029522 -0.000166839 -0.000460431 -0.000262644 0.00194981 0.00108217 -0.00043512 -0.00159287 -0.00100399 0.00355213 0.00246334 -0.000152988 -0.00327175 -0.00259073 0.00456729 0.00395921 0.00212339 -0.00378974 -0.00686016 0.00269722 0.00283482 0.0030276 0.0027368 -0.0112964 
</DataArray>
<DataArray Name="Strain_13" format="ascii" type="Float64">
-16.7915 -13.061 -9.32926 -5.59758 -1.86586 -16.7925 -13.0617 -9.32964 -5.59773 -1.8659 -16.7928 -13.0617 -9.33001 -5.59799 -1.86599 -16.7929 -13.0615 -9.32998 -5.59811 -1.86605 -16.793 -13.0614 -9.32989 -5.59809 -1.86606 -16.793 -13.0614 -9.32989 -5.59809 -1.86606 -16.7929 -13.0615 -9.32998 -5.59811 -1.86605 -16.7928 -13.0617 -9.33001 -5.59799 -1.86599 -16.7925 -13.0617 -9.32964 -5.59773 -1.8659 -16.7915 -13.061 -9.32926 -5.59758 -1.86586 1.86586 5.59758 9.32926 13.061 16.7915 1.8659 5.59773 9.32964 13.0617 16.7925 1.86599 5.59799 9.33001 13.0617 16.7928 1.86605 5.59811 9.32998 13.0615 16.7929 1.86606 5.59809 9.32989 13.0614 16.793 1.86606 5.59809 9.32989 13.0614 16.793 1.86605 5.59811 9.32998 13.0615 16.7929 1.86599 5.59799 9.33001 13.0617 16.7928 1.8659 5.59773 9.32964 13.0617 16.7925 1.86586 5.59758 9.32926 13.061 16.7915 
</DataArray>
<DataArray Name="Strain_23" format="ascii" type="Float64">
0.00154597 0.000106536 -0.000527865 -0.000566151 -0.000558486 0.000713457 0.00042128 1.10012e-05 -0.000478017 -0.000667722 1.59247e-05 5.46859e-05 0.000130039 -1.7487e-05 -0.000183162 -9.41155e-05 -8.80956e-05 2.07904e-05 8.51527e-05 7.6268e-05 -4.59818e-05 -4.23313e-05 -2.95384e-06 3.69192e-05 5.43477e-05 4.59818e-05 4.23313e-05 2.95384e-06 -3.69192e-05 -5.43477e-05 9.41155e-05 8.80956e-05 -2.07904e-05 -8.51527e-05 -7.6268e-05 -1.59247e-05 -5.46859e-05 -0.000130039 1.7487e-05 0.000183162 -0.000713457 -0.00042128 -1.10012e-05 0.000478017 0.000667722 -0.00154597 -0.000106536 0.000527865 0.000566151 0.000558486 -0.000558486 -0.000566151 -0.000527865 0.000106536 0.00154597 -0.000667722 -0.000478017 1.10012e-05 0.00042128 0.000713457 -0.000183162 -1.7487e-05 0.000130039 5.46859e-05 1.59247e-05 7.6268e-05 8.51527e-05 2.07904e-05 -8.80956e-05 -9.41155e-05 5.43477e-05 3.69192e-05 -2.95384e-06 -4.23313e-05 -4.59818e-05 -5.43477e-05 -3.69192e-05 2.95384e-06 4.23313e-05 4.59818e-05 -7.6268e-05 -8.51527e-05 -2.07904e-05 8.80956e-05 9.41155e-05 0.000183162 1.7487e-05 -0.000130039 -5.46859e-05 -1.59247e-05 0.000667722 0.000478017 -1.10012e-05 -0.00042128 -0.000713457 0.000558486 0.000566151 0.000527865 -0.000106536 -0.00154597 
</DataArray>
<DataArray Name="Strain_33" format="ascii" type="Float64">
0.045 0.035 0.025 0.015 0.005 0.045 0.035 0.025 0.015 0.005 0.045 0.035 0.025 0.015 0.005 0.045 0.035 0.025 0.015 0.005 0.045 0.035 0.025 0.015 0.005 0.045 0.035 0.025 0.015 0.005 0.045 0.035 0.025 0.015 0.005 0.045 0.035 0.025 0.015 0.005 0.045 0.035 0.025 0.015 0.005 0.045 0.035 0.025 0.015 0.005 -0.005 -0.015 -0.025 -0.035 -0.045 -0.005 -0.015 -0.025 -0.035 -0.045 -0.005 -0.015 -0.025 -0.035 -0.045 -0.005 -0.015 -0.025 -0.035 -0.045 -0.005 -0.015 -0.025 -0.035 -0.045 -0.005 -0.015 -0.025 -0.035 -0.045 -0.005 -0.015 -0.025 -0.035 -0.045 -0.005 -0.015 -0.025 -0.035 -0.045 -0.005 -0.015 -0.025 -0.035 -0.045 -0.005 -0.015 -0.025 -0.035 -0.045 
</DataArray>
<DataArray Name="Stress_11" format="ascii" type="Float64">
-3932.91 -3059.36 -2185.33 -1311.21 -437.072 -3932.37 -3058.35 -2184.66 -1310.84 -436.956 -3932.53 -3058.49 -2184.55 -1310.73 -436.911 -3932.56 -3058.58 -2184.63 -1310.75 -436.912 -3932.58 -3058.62 -2184.68 -1310.78 -436.92 -3932.58 -3058.62 -2184.68 -1310.78 -436.92 -3932.56 -3058.58 -2184.63 -1310.75 -436.912 -3932.53 -3058.49 -2184.55 -1310.73 -436.911 -3932.37 -3058.35 -2184.66 -1310.84 -436.956 -3932.91 -3059.36 -2185.33 -1311.21 -437.072 437.072 1311.21 2185.33 3059.36 3932.91 436.956 1310.84 2184.66 3058.35 3932.37 436.911 1310.73 2184.55 3058.49 3932.53 436.912 1310.75 2184.63 3058.58 3932.56 436.92 1310.78 2184.68 3058.62 3932.58 436.92 1310.78 2184.68 3058.62 3932.58 436.912 1310.75 2184.63 3058.58 3932.56 436.911 1310.73 2184.55 3058.49 3932.53 436.956 1310.84 2184.66 3058.35 3932.37 437.072 1311.21 2185.33 3059.36 3932.91 
</DataArray>
<DataArray Name="Stress_22" format="ascii" type="Float64">
-1181.2 -920.229 -657.249 -394.365 -131.454 -1181.59 -919.718 -657.195 -394.337 -131.45 -1181.88 -919.499 -656.988 -394.259 -131.426 -1182.02 -919.445 -656.859 -394.171 -131.4 -1182.07 -919.434 -656.806 -394.125 -131.383 -1182.07 -919.434 -656.806 -394.125 -131.383 -1182.02 -919.445 -656.859 -394.171 -131.4 -1181.88 -919.499 -656.988 -394.259 -131.426 -1181.59 -919.718 -657.195 -394.337 -131.45 -1181.2 -920.229 -657.249 -394.365 -131.454 131.454 394.365 657.249 920.229 1181.2 131.45 394.337 657.195 919.718 1181.59 131.426 394.259 656.988 919.499 1181.88 131.4 394.171 656.859 919.445 1182.02 131.383 394.125 656.806 919.434 1182.07 131.383 394.125 656.806 919.434 1182.07 131.4 394.171 656.859 919.445 1182.02 131.426 394.259 656.988 919.499 1181.88 131.45 394.337 657.195 919.718 1181.59 131.454 394.365 657.249 920.229 1181.2 
</DataArray>
<DataArray Name="Stress_12" format="ascii" type="Float64">
0.629034 -0.149991 -0.169157 -0.158746 -0.15114 0.380876 0.210542 -0.116732 -0.220147 -0.254539 0.14257 0.18022 0.00906451 -0.135571 -0.196283 0.054749 0.0871672 0.0240355 -0.0590937 -0.106858 0.0142155 0.025112 0.00916137 -0.0160525 -0.0324364 -0.0142155 -0.025112 -0.00916137 0.0160525 0.0324364 -0.054749 -0.0871672 -0.0240355 0.0590937 0.106858 -0.14257 -0.18022 -0.00906451 0.135571 0.196283 -0.380876 -0.210542 0.116732 0.220147 0.254539 -0.629034 0.149991 0.169157 0.158746 0.15114 -0.15114 -0.158746 -0.169157 -0.149991 0.629034 -0.254539 -0.220147 -0.116732 0.210542 0.380876 -0.196283 -0.135571 0.00906451 0.18022 0.14257 -0.106858 -0.0590937 0.0240355 0.0871672 0.054749 -0.0324364 -0.0160525 0.00916137 0.025112 0.0142155 0.0324364 0.0160525 -0.00916137 -0.025112 -0.0142155 0.106858 0.0590937 -0.0240355 -0.0871672 -0.054749 0.196283 0.135571 -0.00906451 -0.18022 -0.14257 0.254539 0.220147 0.116732 -0.210542 -0.380876 0.15114 0.158746 0.169157 0.149991 -0.629034 
</DataArray>
<DataArray Name="Stress_13" format="ascii" type="Float64">
-3186.38 -2478.4 -1770.32 -1062.2 -354.066 -3186.23 -2478.11 -1770.09 -1062.06 -354.023 -3186.29 -2478.19 -1770.11 -1062.05 -354.017 -3186.3 -2478.22 -1770.15 -1062.08 -354.027 -3186.3 -2478.23 -1770.17 -1062.1 -354.033 -3186.3 -2478.23 -1770.17 -1062.1 -354.033 -3186.3 -2478.22 -1770.15 -1062.08 -354.027 -3186.29 -2478.19 -1770.11 -1062.05 -354.017 -3186.23 -2478.11 -1770.09 -1062.06 -354.023 -3186.38 -2478.4 -1770.32 -1062.2 -354.066 354.066 1062.2 1770.32 2478.4 3186.38 354.023 1062.06 1770.09 2478.11 3186.23 354.017 1062.05 1770.11 2478.19 3186.29 354.027 1062.08 1770.15 2478.22 3186.3 354.033 1062.1 1770.17 2478.23 3186.3 354.033 1062.1 1770.17 2478.23 3186.3 354.027 1062.08 1770.15 2478.22 3186.3 354.017 1062.05 1770.11 2478.19 3186.29 354.023 1062.06 1770.09 2478.11 3186.23 354.066 1062.2 1770.32 2478.4 3186.38 
</DataArray>
<DataArray Name="Stress_23" format="ascii" type="Float64">
0.14151 -0.00782452 -0.0441706 -0.0453124 -0.0442028 0.0735409 0.0421191 -0.0100119 -0.046087 -0.0595611 0.0138295 0.0193665 0.00791707 -0.0132785 -0.0278346 -0.00015639 0.00311907 0.00331907 -0.000727462 -0.00555429 -0.00121578 -2.60654e-05 0.000671733 0.000554459 1.56518e-05 0.00121578 2.60654e-05 -0.000671733 -0.000554459 -1.56518e-05 0.00015639 -0.00311907 -0.00331907 0.000727462 0.00555429 -0.0138295 -0.0193665 -0.00791707 0.0132785 0.0278346 -0.0735409 -0.0421191 0.0100119 0.046087 0.0595611 -0.14151 0.00782452 0.0441706 0.0453124 0.0442028 -0.0442028 -0.0453124 -0.0441706 -0.00782452 0.14151 -0.0595611 -0.046087 -0.0100119 0.0421191 0.0735409 -0.0278346 -0.0132785 0.00791707 0.0193665 0.0138295 -0.00555429 -0.000727462 0.00331907 0.00311907 -0.00015639 1.56518e-05 0.000554459 0.000671733 -2.60654e-05 -0.00121578 -1.56518e-05 -0.000554459 -0.000671733 2.60654e-05 0.00121578 0.00555429 0.000727462 -0.00331907 -0.00311907 0.00015639 0.0278346 0.0132785 -0.00791707 -0.0193665 -0.0138295 0.0595611 0.046087 0.0100119 -0.0421191 -0.0735409 0.0442028 0.0453124 0.0441706 0.00782452 -0.14151 
</DataArray>
<DataArray Name="Stress_33" format="ascii" type="Float64">
-2791.67 -2171.76 -1551.28 -930.778 -310.26 -2791.53 -2171.25 -1550.98 -930.611 -310.207 -2791.66 -2171.29 -1550.92 -930.56 -310.188 -2791.7 -2171.32 -1550.94 -930.563 -310.188 -2791.71 -2171.33 -1550.95 -930.568 -310.189 -2791.71 -2171.33 -1550.95 -930.568 -310.189 -2791.7 -2171.32 -1550.94 -930.563 -310.188 -2791.66 -2171.29 -1550.92 -930.56 -310.188 -2791.53 -2171.25 -1550.98 -930.611 -310.207 -2791.67 -2171.76 -1551.28 -930.778 -310.26 310.26 930.778 1551.28 2171.76 2791.67 310.207 930.611 1550.98 2171.25 2791.53 310.188 930.56 1550.92 2171.29 2791.66 310.188 930.563 1550.94 2171.32 2791.7 310.189 930.568 1550.95 2171.33 2791.71 310.189 930.568 1550.95 2171.33 2791.71 310.188 930.563 1550.94 2171.32 2791.7 310.188 930.56 1550.92 2171.29 2791.66 310.207 930.611 1550.98 2171.25 2791.53 310.26 930.778 1551.28 2171.76 2791.67 
</DataArray>
</CellData>
<Points>
<DataArray NumberOfComponents="3" format="ascii" type="Float64">
-0.05 -0.05 0 -0.05 0 0 -0.05 -0.04 0 -0.05 -0.03 0 -0.05 -0.02 0 -0.05 -0.01 0 0 0 0 -0.04 0 0 -0.03 0 0 -0.02 0 0 -0.01 0 0 0 -0.05 0 0 -0.01 0 0 -0.02 0 0 -0.03 0 0 -0.04 0 -0.01 -0.05 0 -0.02 -0.05 0 -0.03 -0.05 0 -0.04 -0.05 0 -0.04 -0.04 0 -0.04 -0.03 0 -0.04 -0.02 0 -0.04 -0.01 0 -0.03 -0.04 0 -0.03 -0.03 0 -0.03 -0.02 0 -0.03 -0.01 0 -0.02 -0.04 0 -0.02 -0.03 0 -0.02 -0.02 0 -0.02 -0.01 0 -0.01 -0.04 0 -0.01 -0.03 0 -0.01 -0.02 0 -0.01 -0.01 0 -0.05 0.05 0 -0.05 0.01 0 -0.05 0.02 0 -0.05 0.03 0 -0.05 0.04 0 0 0.05 0 -0.04 0.05 0 -0.03 0.05 0 -0.02 0.05 0 -0.01 0.05 0 0 0.04 0 0 0.03 0 0 0.02 0 0 0.01 0 -0.04 0.01 0 -0.04 0.02 0 -0.04 0.03 0 -0.04 0.04 0 -0.03 0.01 0 -0.03 0.02 0 -0.03 0.03 0 -0.03 0.04 0 -0.02 0.01 0 -0.02 0.02 0 -0.02 0.03 0 -0.02 0.04 0 -0.01 0.01 0 -0.01 0.02 0 -0.01 0.03 0 -0.01 0.04 0 0.05 0 0 0.01 0 0 0.02 0 0 0.03 0 0 0.04 0 0 0.05 -0.05 0 0.05 -0.01 0 0.05 -0.02 0 0.05 -0.03 0 0.05 -0.04 0 0.04 -0.05 0 0.03 -0.05 0 0.02 -0.05 0 0.01 -0.05 0 0.01 -0.04 0 0.01 -0.03 0 0.01 -0.02 0 0.01 -0.01 0 0.02 -0.04 0 0.02 -0.03 0 0.02 -0.02 0 0.02 -0.01 0 0.03 -0.04 0 0.03 -0.03 0 0.03 -0.02 0 0.03 -0.01 0 0.04 -0.04 0 0.04 -0.03 0 0.04 -0.02 0 0.04 -0.01 0 0.05 0.05 0 0.01 0.05 0 0.02 0.05 0 0.03 0.05 0 0.04 0.05 0 0.05 0.04 0 0.05 0.03 0 0.05 0.02 0 0.05 0.01 0 0.01 0.01 0 0.01 0.02 0 0.01 0.03 0 0.01 0.04 0 0.02 0.01 0 0.02 0.02 0 0.02 0.03 0 0.02 0.04 0 0.03 0.01 0 0.03 0.02 0 0.03 0.03 0 0.03 0.04 0 0.04 0.01 0 0.04 0.02 0 0.04 0.03 0 0.04 0.04 0 
</DataArray>
</Points>
<Cells>
<DataArray Name="connectivity" format="ascii" type="Int64">
0 19 20 2 19 18 24 20 18 17 28 24 17 16 32 28 16 11 15 32 2 20 21 3 20 24 25 21 24 28 29 25 28 32 33 29 32 15 14 33 3 21 22 4 21 25 26 22 25 29 30 26 29 33 34 30 33 14 13 34 4 22 23 5 22 26 27 23 26 30 31 27 30 34 35 31 34 13 12 35 5 23 7 1 23 27 8 7 27 31 9 8 31 35 10 9 35 12 6 10 1 7 50 37 7 8 54 50 8 9 58 54 9 10 62 58 10 6 49 62 37 50 51 38 50 54 55 51 54 58 59 55 58 62 63 59 62 49 48 63 38 51 52 39 51 55 56 52 55 59 60 56 59 63 64 60 63 48 47 64 39 52 53 40 52 56 57 53 56 60 61 57 60 64 65 61 64 47 46 65 40 53 42 36 53 57 43 42 57 61 44 43 61 65 45 44 65 46 41 45 11 79 80 15 79 78 84 80 78 77 88 84 77 76 92 88 76 71 75 92 15 80 81 14 80 84 85 81 84 88 89 85 88 92 93 89 92 75 74 93 14 81 82 13 81 85 86 82 85 89 90 86 89 93 94 90 93 74 73 94 13 82 83 12 82 86 87 83 86 90 91 87 90 94 95 91 94 73 72 95 12 83 67 6 83 87 68 67 87 91 69 68 91 95 70 69 95 72 66 70 6 67 105 49 67 68 109 105 68 69 113 109 69 70 117 113 70 66 104 117 49 105 106 48 105 109 110 106 109 113 114 110 113 117 118 114 117 104 103 118 48 106 107 47 106 110 111 107 110 114 115 111 114 118 119 115 118 103 102 119 47 107 108 46 107 111 112 108 111 115 116 112 115 119 120 116 119 102 101 120 46 108 97 41 108 112 98 97 112 116 99 98 116 120 100 99 120 101 96 100 
</DataArray>
<DataArray Name="offsets" format="ascii" type="Int64">
4 8 12 16 20 24 28 32 36 40 44 48 52 56 60 64 68 72 76 80 84 88 92 96 100 104 108 112 116 120 124 128 132 136 140 144 148 152 156 160 164 168 172 176 180 184 188 192 196 200 204 208 212 216 220 224 228 232 236 240 244 248 252 256 260 264 268 272 276 280 284 288 292 296 300 304 308 312 316 320 324 328 332 336 340 344 348 352 356 360 364 368 372 376 380 384 388 392 396 400 
</DataArray>
<DataArray Name="types" format="ascii" type="Int8">
9 9 9 9 9 9 9 9 9 9 9 9 9 9 9 9 9 9 9 9 9 9 9 9 9 9 9 9 9 9 9 9 9 9 9 9 9 9 9 9 9 9 9 9 9 9 9 9 9 9 9 9 9 9 9 9 9 9 9 9 9 9 9 9 9 9 9 9 9 9 9 9 9 9 9 9 9 9 9 9 9 9 9 9 9 9 9 9 9 9 9 9 9 9 9 9 9 9 9 9 
</DataArray>
</Cells>
</Piece>
</UnstructuredGrid>
</VTKFile>
