<?xml version="1.0"?>
<VTKFile byte_order="LittleEndian" type="UnstructuredGrid" version="0.1">
<UnstructuredGrid>
<Piece NumberOfCells="100" NumberOfPoints="121">
<PointData>
<DataArray Name="Warping_X" format="ascii" type="Float64">
0.0169703 0.0144518 0.0162866 0.0155843 0.0149795 0.0145865 -1.6501e-19 0.0147628 0.0129781 0.00957441 0.00506702 5.05505e-18 1.98586e-18 5.13999e-18 6.61208e-18 5.84785e-18 0.0055825 0.0106485 0.0146642 0.017039 0.0165538 0.0158782 0.0152844 0.0148962 0.014459 0.0139285 0.0134279 0.0130937 0.0105948 0.0102555 0.00990148 0.00965903 0.00558089 0.0054189 0.00523835 0.00511157 0.0169703 0.0145865 0.0149795 0.0155843 0.0162866 3.72059e-18 0.017039 0.0146642 0.0106485 0.0055825 4.09741e-18 2.67519e-18 7.45975e-19 -5.41792e-19 0.0148962 0.0152844 0.0158782 0.0165538 0.0130937 0.0134279 0.0139285 0.014459 0.00965903 0.00990148 0.0102555 0.0105948 0.00511157 0.00523835 0.0054189 0.00558089 -0.0144518 -0.00506702 -0.00957441 -0.0129781 -0.0147628 -0.0169703 -0.0145865 -0.0149795 -0.0155843 -0.0162866 -0.017039 -0.0146642 -0.0106485 -0.0055825 -0.00558089 -0.0054189 -0.00523835 -0.00511157 -0.0105948 -0.0102555 -0.00990148 -0.00965903 -0.014459 -0.0139285 -0.0134279 -0.0130937 -0.0165538 -0.0158782 -0.0152844 -0.0148962 -0.0169703 -0.0055825 -0.0106485 -0.0146642 -0.017039 -0.0162866 -0.0155843 -0.0149795 -0.0145865 -0.00511157 -0.00523835 -0.0054189 -0.00558089 -0.00965903 -0.00990148 -0.0102555 -0.0105948 -0.0130937 -0.0134279 -0.0139285 -0.014459 -0.0148962 -0.0152844 -0.0158782 -0.0165538 
</DataArray>
<DataArray Name="Warping_Y" format="ascii" type="Float64">
-0.00908449 -1.79777e-18 -0.00756665 -0.00592627 -0.00407576 -0.0020743 -3.04527e-18 7.65745e-19 1.82157e-18 1.44945e-18 -1.32885e-18 -0.00908935 -0.00160087 -0.00326933 -0.00506479 -0.00701785 -0.00901323 -0.00881646 -0.00860239 -0.00854854 -0.00695704 -0.00530541 -0.00358408 -0.00180723 -0.00678567 -0.00504857 -0.00334916 -0.00167002 -0.00685783 -0.00500701 -0.00327115 -0.00161538 -0.00696951 -0.00504297 -0.00326445 -0.00160191 0.00908449 0.0020743 0.00407576 0.00592627 0.00756665 0.00908935 0.00854854 0.00860239 0.00881646 0.00901323 0.00701785 0.00506479 0.00326933 0.00160087 0.00180723 0.00358408 0.00530541 0.00695704 0.00167002 0.00334916 0.00504857 0.00678567 0.00161538 0.00327115 0.00500701 0.00685783 0.00160191 0.00326445 0.00504297 0.00696951 4.25241e-18 -4.16433e-18 -3.1331e-18 -2.33885e-18 -2.33484e-19 -0.00908449 -0.0020743 -0.00407576 -0.00592627 -0.00756665 -0.00854854 -0.00860239 -0.00881646 -0.00901323 -0.00696951 -0.00504297 -0.00326445 -0.00160191 -0.00685783 -0.00500701 -0.00327115 -0.00161538 -0.00678567 -0.00504857 -0.00334916 -0.00167002 -0.00695704 -0.00530541 -0.00358408 -0.00180723 0.00908449 0.00901323 0.00881646 0.00860239 0.00854854 0.00756665 0.00592627 0.00407576 0.0020743 0.00160191 0.00326445 0.00504297 0.00696951 0.00161538 0.00327115 0.00500701 0.00685783 0.00167002 0.00334916 0.00504857 0.00678567 0.00180723 0.00358408 0.00530541 0.00695704 
</DataArray>
<DataArray Name="Warping_Z" format="ascii" type="Float64">
0 0 0 0 0 0 0 0 0 0 0 0 0 0 0 0 0 0 0 0 0 0 0 0 0 0 0 0 0 0 0 0 0 0 0 0 0 0 0 0 0 0 0 0 0 0 0 0 0 0 0 0 0 0 0 0 0 0 0 0 0 0 0 0 0 0 0 0 0 0 0 0 0 0 0 0 0 0 0 0 0 0 0 0 0 0 0 0 0 0 0 0 0 0 0 0 0 0 0 0 0 0 0 0 0 0 0 0 0 0 0 0 0 0 0 0 0 0 0 0 0 
</DataArray>
</PointData>
<CellData>
<DataArray Name="MaterialId" format="ascii" type="Float64">
3 3 3 3 3 3 3 3 3 3 3 3 3 3 3 3 3 3 3 3 3 3 3 3 3 3 3 3 3 3 3 3 3 3 3 3 3 3 3 3 3 3 3 3 3 3 3 3 3 3 3 3 3 3 3 3 3 3 3 3 3 3 3 3 3 3 3 3 3 3 3 3 3 3 3 3 3 3 3 3 3 3 3 3 3 3 3 3 3 3 3 3 3 3 3 3 3 3 3 3 
</DataArray>
<DataArray Name="FiberAngle" format="ascii" type="Float64">
45 45 45 45 45 45 45 45 45 45 45 45 45 45 45 45 45 45 45 45 45 45 45 45 45 45 45 45 45 45 45 45 45 45 45 45 45 45 45 45 45 45 45 45 45 45 45 45 45 45 45 45 45 45 45 45 45 45 45 45 45 45 45 45 45 45 45 45 45 45 45 45 45 45 45 45 45 45 45 45 45 45 45 45 45 45 45 45 45 45 45 45 45 45 45 45 45 45 45 45 
</DataArray>
<DataArray Name="Strain_11" format="ascii" type="Float64">
0.0167925 -0.223483 -0.39399 -0.503996 -0.558169 0.0280522 -0.202225 -0.376859 -0.492525 -0.549989 0.029936 -0.19031 -0.359973 -0.474986 -0.532862 0.0307277 -0.182948 -0.348057 -0.460529 -0.517496 0.0310352 -0.179358 -0.341919 -0.452742 -0.50893 0.0310352 -0.179358 -0.341919 -0.452742 -0.50893 0.0307277 -0.182948 -0.348057 -0.460529 -0.517496 0.029936 -0.19031 -0.359973 -0.474986 -0.532862 0.0280522 -0.202225 -0.376859 -0.492525 -0.549989 0.0167925 -0.223483 -0.39399 -0.503996 -0.558169 -0.558169 -0.503996 -0.39399 -0.223483 0.0167925 -0.549989 -0.492525 -0.376859 -0.202225 0.0280522 -0.532862 -0.474986 -0.359973 -0.19031 0.029936 -0.517496 -0.460529 -0.348057 -0.182948 0.0307277 -0.50893 -0.452742 -0.341919 -0.179358 0.0310352 -0.50893 -0.452742 -0.341919 -0.179358 0.0310352 -0.517496 -0.460529 -0.348057 -0.182948 0.0307277 -0.532862 -0.474986 -0.359973 -0.19031 0.029936 -0.549989 -0.492525 -0.376859 -0.202225 0.0280522 -0.558169 -0.503996 -0.39399 -0.223483 0.0167925 
</DataArray>
<DataArray Name="Strain_22" format="ascii" type="Float64">
0.155467 0.170411 0.188767 0.200118 0.205761 0.1646 0.169436 0.179396 0.188868 0.19398 0.178592 0.171037 0.171764 0.175719 0.178699 0.188915 0.172799 0.166745 0.165916 0.16655 0.194077 0.173863 0.16427 0.160864 0.160139 0.194077 0.173863 0.16427 0.160864 0.160139 0.188915 0.172799 0.166745 0.165916 0.16655 0.178592 0.171037 0.171764 0.175719 0.178699 0.1646 0.169436 0.179396 0.188868 0.19398 0.155467 0.170411 0.188767 0.200118 0.205761 0.205761 0.200118 0.188767 0.170411 0.155467 0.19398 0.188868 0.179396 0.169436 0.1646 0.178699 0.175719 0.171764 0.171037 0.178592 0.16655 0.165916 0.166745 0.172799 0.188915 0.160139 0.160864 0.16427 0.173863 0.194077 0.160139 0.160864 0.16427 0.173863 0.194077 0.16655 0.165916 0.166745 0.172799 0.188915 0.178699 0.175719 0.171764 0.171037 0.178592 0.19398 0.188868 0.179396 0.169436 0.1646 0.205761 0.200118 0.188767 0.170411 0.155467 
</DataArray>
<DataArray Name="Strain_12" format="ascii" type="Float64">
-0.0011699 -0.0286444 -0.0272582 -0.0181892 -0.00630321 -0.0073688 -0.0388928 -0.0450181 -0.0324476 -0.0116076 -0.00429962 -0.0301291 -0.0367507 -0.028191 -0.010362 -0.00112558 -0.0175132 -0.0221984 -0.0174539 -0.00653122 -5.57011e-05 -0.00559359 -0.00728264 -0.00578463 -0.00217569 5.57011e-05 0.00559359 0.00728264 0.00578463 0.00217569 0.00112558 0.0175132 0.0221984 0.0174539 0.00653122 0.00429962 0.0301291 0.0367507 0.028191 0.010362 0.0073688 0.0388928 0.0450181 0.0324476 0.0116076 0.0011699 0.0286444 0.0272582 0.0181892 0.00630321 0.00630321 0.0181892 0.0272582 0.0286444 0.0011699 0.0116076 0.0324476 0.0450181 0.0388928 0.0073688 0.010362 0.028191 0.0367507 0.0301291 0.00429962 0.00653122 0.0174539 0.0221984 0.0175132 0.00112558 0.00217569 0.00578463 0.00728264 0.00559359 5.57011e-05 -0.00217569 -0.00578463 -0.00728264 -0.00559359 -5.57011e-05 -0.00653122 -0.0174539 -0.0221984 -0.0175132 -0.00112558 -0.010362 -0.028191 -0.0367507 -0.0301291 -0.00429962 -0.0116076 -0.0324476 -0.0450181 -0.0388928 -0.0073688 -0.00630321 -0.0181892 -0.0272582 -0.0286444 -0.0011699 
</DataArray>
<DataArray Name="Strain_13" format="ascii" type="Float64">
0.3643 0.811984 1.13346 1.34301 1.44669 0.325142 0.729458 1.03513 1.23803 1.33909 0.3129 0.689207 0.977122 1.17117 1.2686 0.306822 0.668483 0.945196 1.13229 1.22659 0.304345 0.659412 0.930899 1.11449 1.20708 0.304345 0.659412 0.930899 1.11449 1.20708 0.306822 0.668483 0.945196 1.13229 1.22659 0.3129 0.689207 0.977122 1.17117 1.2686 0.325142 0.729458 1.03513 1.23803 1.33909 0.3643 0.811984 1.13346 1.34301 1.44669 1.44669 1.34301 1.13346 0.811984 0.3643 1.33909 1.23803 1.03513 0.729458 0.325142 1.2686 1.17117 0.977122 0.689207 0.3129 1.22659 1.13229 0.945196 0.668483 0.306822 1.20708 1.11449 0.930899 0.659412 0.304345 1.20708 1.11449 0.930899 0.659412 0.304345 1.22659 1.13229 0.945196 0.668483 0.306822 1.2686 1.17117 0.977122 0.689207 0.3129 1.33909 1.23803 1.03513 0.729458 0.325142 1.44669 1.34301 1.13346 0.811984 0.3643 
</DataArray>
<DataArray Name="Strain_23" format="ascii" type="Float64">
-0.0973297 -0.0472255 -0.0271443 -0.0143801 -0.00452444 -0.176679 -0.104337 -0.0608777 -0.0324003 -0.0102058 -0.165018 -0.106574 -0.0649762 -0.0349271 -0.0110292 -0.11198 -0.0749907 -0.047004 -0.0256058 -0.00811182 -0.0392784 -0.0266891 -0.0169213 -0.00928691 -0.00295089 0.0392784 0.0266891 0.0169213 0.00928691 0.00295089 0.11198 0.0749907 0.047004 0.0256058 0.00811182 0.165018 0.106574 0.0649762 0.0349271 0.0110292 0.176679 0.104337 0.0608777 0.0324003 0.0102058 0.0973297 0.0472255 0.0271443 0.0143801 0.00452444 0.00452444 0.0143801 0.0271443 0.0472255 0.0973297 0.0102058 0.0324003 0.0608777 0.104337 0.176679 0.0110292 0.0349271 0.0649762 0.106574 0.165018 0.00811182 0.0256058 0.047004 0.0749907 0.11198 0.00295089 0.00928691 0.0169213 0.0266891 0.0392784 -0.00295089 -0.00928691 -0.0169213 -0.0266891 -0.0392784 -0.00811182 -0.0256058 -0.047004 -0.0749907 -0.11198 -0.0110292 -0.0349271 -0.0649762 -0.106574 -0.165018 -0.0102058 -0.0324003 -0.0608777 -0.104337 -0.176679 -0.00452444 -0.0143801 -0.0271443 -0.0472255 -0.0973297 
</DataArray>
<DataArray Name="Strain_33" format="ascii" type="Float64">
-0.19591 -0.0466474 0.065304 0.139938 0.177255 -0.195921 -0.0466501 0.0653066 0.139943 0.177262 -0.195925 -0.0466525 0.0653059 0.139946 0.177266 -0.195924 -0.0466523 0.0653052 0.139946 0.177266 -0.195924 -0.0466516 0.0653051 0.139945 0.177266 -0.195924 -0.0466516 0.0653051 0.139945 0.177266 -0.195924 -0.0466523 0.0653052 0.139946 0.177266 -0.195925 -0.0466525 0.0653059 0.139946 0.177266 -0.195921 -0.0466501 0.0653066 0.139943 0.177262 -0.19591 -0.0466474 0.065304 0.139938 0.177255 0.177255 0.139938 0.065304 -0.0466474 -0.19591 0.177262 0.139943 0.0653066 -0.0466501 -0.195921 0.177266 0.139946 0.0653059 -0.0466525 -0.195925 0.177266 0.139946 0.0653052 -0.0466523 -0.195924 0.177266 0.139945 0.0653051 -0.0466516 -0.195924 0.177266 0.139945 0.0653051 -0.0466516 -0.195924 0.177266 0.139946 0.0653052 -0.0466523 -0.195924 0.177266 0.139946 0.0653059 -0.0466525 -0.195925 0.177262 0.139943 0.0653066 -0.0466501 -0.195921 0.177255 0.139938 0.065304 -0.0466474 -0.19591 
</DataArray>
<DataArray Name="Stress_11" format="ascii" type="Float64">
20.165 22.1217 24.7844 26.9476 28.1211 19.5397 19.5556 19.555 19.7442 19.9019 19.3389 18.7319 17.9683 17.3251 16.9875 19.3194 18.6232 17.6744 16.8305 16.3433 19.3401 18.6706 17.721 16.8558 16.3492 19.3401 18.6706 17.721 16.8558 16.3492 19.3194 18.6232 17.6744 16.8305 16.3433 19.3389 18.7319 17.9683 17.3251 16.9875 19.5397 19.5556 19.555 19.7442 19.9019 20.165 22.1217 24.7844 26.9476 28.1211 28.1211 26.9476 24.7844 22.1217 20.165 19.9019 19.7442 19.555 19.5556 19.5397 16.9875 17.3251 17.9683 18.7319 19.3389 16.3433 16.8305 17.6744 18.6232 19.3194 16.3492 16.8558 17.721 18.6706 19.3401 16.3492 16.8558 17.721 18.6706 19.3401 16.3433 16.8305 17.6744 18.6232 19.3194 16.9875 17.3251 17.9683 18.7319 19.3389 19.9019 19.7442 19.555 19.5556 19.5397 28.1211 26.9476 24.7844 22.1217 20.165 
</DataArray>
<DataArray Name="Stress_22" format="ascii" type="Float64">
13.6052 11.6319 11.4397 11.3278 11.2977 15.2529 12.3785 10.9813 10.4472 10.2423 17.1689 13.0659 10.6632 9.44715 8.95702 18.557 13.5836 10.4691 8.72637 7.96618 19.2468 13.8608 10.3792 8.36187 7.45344 19.2468 13.8608 10.3792 8.36187 7.45344 18.557 13.5836 10.4691 8.72637 7.96618 17.1689 13.0659 10.6632 9.44715 8.95702 15.2529 12.3785 10.9813 10.4472 10.2423 13.6052 11.6319 11.4397 11.3278 11.2977 11.2977 11.3278 11.4397 11.6319 13.6052 10.2423 10.4472 10.9813 12.3785 15.2529 8.95702 9.44715 10.6632 13.0659 17.1689 7.96618 8.72637 10.4691 13.5836 18.557 7.45344 8.36187 10.3792 13.8608 19.2468 7.45344 8.36187 10.3792 13.8608 19.2468 7.96618 8.72637 10.4691 13.5836 18.557 8.95702 9.44715 10.6632 13.0659 17.1689 10.2423 10.4472 10.9813 12.3785 15.2529 11.2977 11.3278 11.4397 11.6319 13.6052 
</DataArray>
<DataArray Name="Stress_12" format="ascii" type="Float64">
-0.550993 -1.81157 -1.63492 -1.07231 -0.369299 -1.28868 -2.66079 -2.78039 -1.94662 -0.689445 -1.06157 -2.18997 -2.34617 -1.72514 -0.625054 -0.621808 -1.33818 -1.45593 -1.08799 -0.399776 -0.199456 -0.441093 -0.485152 -0.364589 -0.134417 0.199456 0.441093 0.485152 0.364589 0.134417 0.621808 1.33818 1.45593 1.08799 0.399776 1.06157 2.18997 2.34617 1.72514 0.625054 1.28868 2.66079 2.78039 1.94662 0.689445 0.550993 1.81157 1.63492 1.07231 0.369299 0.369299 1.07231 1.63492 1.81157 0.550993 0.689445 1.94662 2.78039 2.66079 1.28868 0.625054 1.72514 2.34617 2.18997 1.06157 0.399776 1.08799 1.45593 1.33818 0.621808 0.134417 0.364589 0.485152 0.441093 0.199456 -0.134417 -0.364589 -0.485152 -0.441093 -0.199456 -0.399776 -1.08799 -1.45593 -1.33818 -0.621808 -0.625054 -1.72514 -2.34617 -2.18997 -1.06157 -0.689445 -1.94662 -2.78039 -2.66079 -1.28868 -0.369299 -1.07231 -1.63492 -1.81157 -0.550993 
</DataArray>
<DataArray Name="Stress_13" format="ascii" type="Float64">
34.4811 88.8589 128.506 154.604 167.574 30.0013 79.2358 116.317 140.976 153.284 28.4313 74.6779 109.742 133.233 145 27.6323 72.4403 106.361 129.118 140.535 27.3036 71.4935 104.921 127.341 138.593 27.3036 71.4935 104.921 127.341 138.593 27.6323 72.4403 106.361 129.118 140.535 28.4313 74.6779 109.742 133.233 145 30.0013 79.2358 116.317 140.976 153.284 34.4811 88.8589 128.506 154.604 167.574 167.574 154.604 128.506 88.8589 34.4811 153.284 140.976 116.317 79.2358 30.0013 145 133.233 109.742 74.6779 28.4313 140.535 129.118 106.361 72.4403 27.6323 138.593 127.341 104.921 71.4935 27.3036 138.593 127.341 104.921 71.4935 27.3036 140.535 129.118 106.361 72.4403 27.6323 145 133.233 109.742 74.6779 28.4313 153.284 140.976 116.317 79.2358 30.0013 167.574 154.604 128.506 88.8589 34.4811 
</DataArray>
<DataArray Name="Stress_23" format="ascii" type="Float64">
-5.35898 -2.74063 -1.62923 -0.881851 -0.28036 -9.7542 -5.933 -3.57336 -1.94426 -0.619356 -9.09751 -6.01224 -3.75744 -2.06194 -0.658417 -6.16454 -4.21206 -2.69621 -1.49559 -0.478806 -2.16059 -1.49587 -0.967083 -0.539703 -0.173177 2.16059 1.49587 0.967083 0.539703 0.173177 6.16454 4.21206 2.69621 1.49559 0.478806 9.09751 6.01224 3.75744 2.06194 0.658417 9.7542 5.933 3.57336 1.94426 0.619356 5.35898 2.74063 1.62923 0.881851 0.28036 0.28036 0.881851 1.62923 2.74063 5.35898 0.619356 1.94426 3.57336 5.933 9.7542 0.658417 2.06194 3.75744 6.01224 9.09751 0.478806 1.49559 2.69621 4.21206 6.16454 0.173177 0.539703 0.967083 1.49587 2.16059 -0.173177 -0.539703 -0.967083 -1.49587 -2.16059 -0.478806 -1.49559 -2.69621 -4.21206 -6.16454 -0.658417 -2.06194 -3.75744 -6.01224 -9.09751 -0.619356 -1.94426 -3.57336 -5.933 -9.7542 -0.28036 -0.881851 -1.62923 -2.74063 -5.35898 
</DataArray>
<DataArray Name="Stress_33" format="ascii" type="Float64">
-5.35925 43.342 79.8997 104.22 116.372 -7.33713 38.2247 72.6149 95.6403 107.172 -7.76444 35.9707 69.0017 91.1169 102.203 -7.87886 34.9787 67.2779 88.8875 99.7148 -7.89502 34.5954 66.5879 87.9783 98.6927 -7.89502 34.5954 66.5879 87.9783 98.6927 -7.87886 34.9787 67.2779 88.8875 99.7148 -7.76444 35.9707 69.0017 91.1169 102.203 -7.33713 38.2247 72.6149 95.6403 107.172 -5.35925 43.342 79.8997 104.22 116.372 116.372 104.22 79.8997 43.342 -5.35925 107.172 95.6403 72.6149 38.2247 -7.33713 102.203 91.1169 69.0017 35.9707 -7.76444 99.7148 88.8875 67.2779 34.9787 -7.87886 98.6927 87.9783 66.5879 34.5954 -7.89502 98.6927 87.9783 66.5879 34.5954 -7.89502 99.7148 88.8875 67.2779 34.9787 -7.87886 102.203 91.1169 69.0017 35.9707 -7.76444 107.172 95.6403 72.6149 38.2247 -7.33713 116.372 104.22 79.8997 43.342 -5.35925 
</DataArray>
</CellData>
<Points>
<DataArray NumberOfComponents="3" format="ascii" type="Float64">
-0.05 -0.05 0 -0.05 0 0 -0.05 -0.04 0 -0.05 -0.03 0 -0.05 -0.02 0 -0.05 -0.01 0 0 0 0 -0.04 0 0 -0.03 0 0 -0.02 0 0 -0.01 0 0 0 -0.05 0 0 -0.01 0 0 -0.02 0 0 -0.03 0 0 -0.04 0 -0.01 -0.05 0 -0.02 -0.05 0 -0.03 -0.05 0 -0.04 -0.05 0 -0.04 -0.04 0 -0.04 -0.03 0 -0.04 -0.02 0 -0.04 -0.01 0 -0.03 -0.04 0 -0.03 -0.03 0 -0.03 -0.02 0 -0.03 -0.01 0 -0.02 -0.04 0 -0.02 -0.03 0 -0.02 -0.02 0 -0.02 -0.01 0 -0.01 -0.04 0 -0.01 -0.03 0 -0.01 -0.02 0 -0.01 -0.01 0 -0.05 0.05 0 -0.05 0.01 0 -0.05 0.02 0 -0.05 0.03 0 -0.05 0.04 0 0 0.05 0 -0.04 0.05 0 -0.03 0.05 0 -0.02 0.05 0 -0.01 0.05 0 0 0.04 0 0 0.03 0 0 0.02 0 0 0.01 0 -0.04 0.01 0 -0.04 0.02 0 -0.04 0.03 0 -0.04 0.04 0 -0.03 0.01 0 -0.03 0.02 0 -0.03 0.03 0 -0.03 0.04 0 -0.02 0.01 0 -0.02 0.02 0 -0.02 0.03 0 -0.02 0.04 0 -0.01 0.01 0 -0.01 0.02 0 -0.01 0.03 0 -0.01 0.04 0 0.05 0 0 0.01 0 0 0.02 0 0 0.03 0 0 0.04 0 0 0.05 -0.05 0 0.05 -0.01 0 0.05 -0.02 0 0.05 -0.03 0 0.05 -0.04 0 0.04 -0.05 0 0.03 -0.05 0 0.02 -0.05 0 0.01 -0.05 0 0.01 -0.04 0 0.01 -0.03 0 0.01 -0.02 0 0.01 -0.01 0 0.02 -0.04 0 0.02 -0.03 0 0.02 -0.02 0 0.02 -0.01 0 0.03 -0.04 0 0.03 -0.03 0 0.03 -0.02 0 0.03 -0.01 0 0.04 -0.04 0 0.04 -0.03 0 0.04 -0.02 0 0.04 -0.01 0 0.05 0.05 0 0.01 0.05 0 0.02 0.05 0 0.03 0.05 0 0.04 0.05 0 0.05 0.04 0 0.05 0.03 0 0.05 0.02 0 0.05 0.01 0 0.01 0.01 0 0.01 0.02 0 0.01 0.03 0 0.01 0.04 0 0.02 0.01 0 0.02 0.02 0 0.02 0.03 0 0.02 0.04 0 0.03 0.01 0 0.03 0.02 0 0.03 0.03 0 0.03 0.04 0 0.04 0.01 0 0.04 0.02 0 0.04 0.03 0 0.04 0.04 0 
</DataArray>
</Points>
<Cells>
<DataArray Name="connectivity" format="ascii" type="Int64">
0 19 20 2 19 18 24 20 18 17 28 24 17 16 32 28 16 11 15 32 2 20 21 3 20 24 25 21 24 28 29 25 28 32 33 29 32 15 14 33 3 21 22 4 21 25 26 22 25 29 30 26 29 33 34 30 33 14 13 34 4 22 23 5 22 26 27 23 26 30 31 27 30 34 35 31 34 13 12 35 5 23 7 1 23 27 8 7 27 31 9 8 31 35 10 9 35 12 6 10 1 7 50 37 7 8 54 50 8 9 58 54 9 10 62 58 10 6 49 62 37 50 51 38 50 54 55 51 54 58 59 55 58 62 63 59 62 49 48 63 38 51 52 39 51 55 56 52 55 59 60 56 59 63 64 60 63 48 47 64 39 52 53 40 52 56 57 53 56 60 61 57 60 64 65 61 64 47 46 65 40 53 42 36 53 57 43 42 57 61 44 43 61 65 45 44 65 46 41 45 11 79 80 15 79 78 84 80 78 77 88 84 77 76 92 88 76 71 75 92 15 80 81 14 80 84 85 81 84 88 89 85 88 92 93 89 92 75 74 93 14 81 82 13 81 85 86 82 85 89 90 86 89 93 94 90 93 74 73 94 13 82 83 12 82 86 87 83 86 90 91 87 90 94 95 91 94 73 72 95 12 83 67 6 83 87 68 67 87 91 69 68 91 95 70 69 95 72 66 70 6 67 105 49 67 68 109 105 68 69 113 109 69 70 117 113 70 66 104 117 49 105 106 48 105 109 110 106 109 113 114 110 113 117 118 114 117 104 103 118 48 106 107 47 106 110 111 107 110 114 115 111 114 118 119 115 118 103 102 119 47 107 108 46 107 111 112 108 111 115 116 112 115 119 120 116 119 102 101 120 46 108 97 41 108 112 98 97 112 116 99 98 116 120 100 99 120 101 96 100 
</DataArray>
<DataArray Name="offsets" format="ascii" type="Int64">
4 8 12 16 20 24 28 32 36 40 44 48 52 56 60 64 68 72 76 80 84 88 92 96 100 104 108 112 116 120 124 128 132 136 140 144 148 152 156 160 164 168 172 176 180 184 188 192 196 200 204 208 212 216 220 224 228 232 236 240 244 248 252 256 260 264 268 272 276 280 284 288 292 296 300 304 308 312 316 320 324 328 332 336 340 344 348 352 356 360 364 368 372 376 380 384 388 392 396 400 
</DataArray>
<DataArray Name="types" format="ascii" type="Int8">
9 9 9 9 9 9 9 9 9 9 9 9 9 9 9 9 9 9 9 9 9 9 9 9 9 9 9 9 9 9 9 9 9 9 9 9 9 9 9 9 9 9 9 9 9 9 9 9 9 9 9 9 9 9 9 9 9 9 9 9 9 9 9 9 9 9 9 9 9 9 9 9 9 9 9 9 9 9 9 9 9 9 9 9 9 9 9 9 9 9 9 9 9 9 9 9 9 9 9 9 
</DataArray>
</Cells>
</Piece>
</UnstructuredGrid>
</VTKFile>
