<?xml version="1.0"?>
<VTKFile byte_order="LittleEndian" type="UnstructuredGrid" version="0.1">
<UnstructuredGrid>
<Piece NumberOfCells="100" NumberOfPoints="121">
<PointData>
<DataArray Name="Warping_X" format="ascii" type="Float64">
-0.52591 5.85461e-17 -0.421668 -0.316412 -0.211009 -0.10552 -2.41617e-18 3.49344e-17 4.41165e-17 2.87561e-17 1.20089e-17 2.9039e-17 -2.75945e-17 -5.83859e-17 -5.884e-17 7.36894e-18 -0.105329 -0.210639 -0.315898 -0.421033 -0.337196 -0.253109 -0.168799 -0.0844153 -0.252852 -0.189783 -0.126583 -0.0633063 -0.16856 -0.126497 -0.0843737 -0.0421989 -0.0842792 -0.0632419 -0.0421815 -0.021097 0.52591 0.10552 0.211009 0.316412 0.421668 -2.39155e-17 0.421033 0.315898 0.210639 0.105329 -2.15574e-17 2.84022e-17 8.3464e-18 1.45739e-17 0.0844153 0.168799 0.253109 0.337196 0.0633063 0.126583 0.189783 0.252852 0.0421989 0.0843737 0.126497 0.16856 0.021097 0.0421815 0.0632419 0.0842792 -4.26351e-17 -1.9895e-17 -3.00215e-17 -4.00209e-17 -4.26423e-17 0.52591 0.10552 0.211009 0.316412 0.421668 0.421033 0.315898 0.210639 0.105329 0.0842792 0.0632419 0.0421815 0.021097 0.16856 0.126497 0.0843737 0.0421989 0.252852 0.189783 0.126583 0.0633063 0.337196 0.253109 0.168799 0.0844153 -0.52591 -0.105329 -0.210639 -0.315898 -0.421033 -0.421668 -0.316412 -0.211009 -0.10552 -0.021097 -0.0421815 -0.0632419 -0.0842792 -0.0421989 -0.0843737 -0.126497 -0.16856 -0.0633063 -0.126583 -0.189783 -0.252852 -0.0844153 -0.168799 -0.253109 -0.337196 
</DataArray>
<DataArray Name="Warping_Y" format="ascii" type="Float64">
0.0421008 0.234981 0.111511 0.165561 0.204136 0.22727 -0.0284488 0.140069 0.0663139 0.0136609 -0.0179222 -0.220562 -0.0361255 -0.0591604 -0.097568 -0.151367 -0.210024 -0.178414 -0.125749 -0.0520968 0.0170841 0.0708437 0.109296 0.132375 -0.0565578 -0.0027974 0.0355918 0.0586327 -0.10922 -0.055438 -0.0170451 0.00598462 -0.140829 -0.0870344 -0.048631 -0.0255983 0.0421008 0.22727 0.204136 0.165561 0.111511 -0.220562 -0.0520968 -0.125749 -0.178414 -0.210024 -0.151367 -0.097568 -0.0591604 -0.0361255 0.132375 0.109296 0.0708437 0.0170841 0.0586327 0.0355918 -0.0027974 -0.0565578 0.00598462 -0.0170451 -0.055438 -0.10922 -0.0255983 -0.048631 -0.0870344 -0.140829 0.234981 -0.0179222 0.0136609 0.0663139 0.140069 0.0421008 0.22727 0.204136 0.165561 0.111511 -0.0520968 -0.125749 -0.178414 -0.210024 -0.140829 -0.0870344 -0.048631 -0.0255983 -0.10922 -0.055438 -0.0170451 0.00598462 -0.0565578 -0.0027974 0.0355918 0.0586327 0.0170841 0.0708437 0.109296 0.132375 0.0421008 -0.210024 -0.178414 -0.125749 -0.0520968 0.111511 0.165561 0.204136 0.22727 -0.0255983 -0.048631 -0.0870344 -0.140829 0.00598462 -0.0170451 -0.055438 -0.10922 0.0586327 0.0355918 -0.0027974 -0.0565578 0.132375 0.109296 0.0708437 0.0170841 
</DataArray>
<DataArray Name="Warping_Z" format="ascii" type="Float64">
0 0 0 0 0 0 0 0 0 0 0 0 0 0 0 0 0 0 0 0 0 0 0 0 0 0 0 0 0 0 0 0 0 0 0 0 0 0 0 0 0 0 0 0 0 0 0 0 0 0 0 0 0 0 0 0 0 0 0 0 0 0 0 0 0 0 0 0 0 0 0 0 0 0 0 0 0 0 0 0 0 0 0 0 0 0 0 0 0 0 0 0 0 0 0 0 0 0 0 0 0 0 0 0 0 0 0 0 0 0 0 0 0 0 0 0 0 0 0 0 0 
</DataArray>
</PointData>
<CellData>
<DataArray Name="MaterialId" format="ascii" type="Float64">
3 3 3 3 3 3 3 3 3 3 3 3 3 3 3 3 3 3 3 3 3 3 3 3 3 3 3 3 3 3 3 3 3 3 3 3 3 3 3 3 3 3 3 3 3 3 3 3 3 3 3 3 3 3 3 3 3 3 3 3 3 3 3 3 3 3 3 3 3 3 3 3 3 3 3 3 3 3 3 3 3 3 3 3 3 3 3 3 3 3 3 3 3 3 3 3 3 3 3 3 
</DataArray>
<DataArray Name="FiberAngle" format="ascii" type="Float64">
45 45 45 45 45 45 45 45 45 45 45 45 45 45 45 45 45 45 45 45 45 45 45 45 45 45 45 45 45 45 45 45 45 45 45 45 45 45 45 45 45 45 45 45 45 45 45 45 45 45 45 45 45 45 45 45 45 45 45 45 45 45 45 45 45 45 45 45 45 45 45 45 45 45 45 45 45 45 45 45 45 45 45 45 45 45 45 45 45 45 45 45 45 45 45 45 45 45 45 45 
</DataArray>
<DataArray Name="Strain_11" format="ascii" type="Float64">
9.4674 9.47396 9.47756 9.47956 9.4804 7.38872 7.38349 7.37889 7.37682 7.37605 5.2757 5.27708 5.27475 5.27237 5.27117 3.16575 3.16623 3.16583 3.1647 3.16393 1.05521 1.05545 1.05537 1.05509 1.05485 -1.05521 -1.05545 -1.05537 -1.05509 -1.05485 -3.16575 -3.16623 -3.16583 -3.1647 -3.16393 -5.2757 -5.27708 -5.27475 -5.27237 -5.27117 -7.38872 -7.38349 -7.37889 -7.37682 -7.37605 -9.4674 -9.47396 -9.47756 -9.47956 -9.4804 9.4804 9.47956 9.47756 9.47396 9.4674 7.37605 7.37682 7.37889 7.38349 7.38872 5.27117 5.27237 5.27475 5.27708 5.2757 3.16393 3.1647 3.16583 3.16623 3.16575 1.05485 1.05509 1.05537 1.05545 1.05521 -1.05485 -1.05509 -1.05537 -1.05545 -1.05521 -3.16393 -3.1647 -3.16583 -3.16623 -3.16575 -5.27117 -5.27237 -5.27475 -5.27708 -5.2757 -7.37605 -7.37682 -7.37889 -7.38349 -7.38872 -9.4804 -9.47956 -9.47756 -9.47396 -9.4674 
</DataArray>
<DataArray Name="Strain_22" format="ascii" type="Float64">
6.92954 6.91861 6.91924 6.91943 6.91951 5.39049 5.376 5.37712 5.37884 5.37968 3.85137 3.84207 3.8391 3.83981 3.84055 2.3107 2.30601 2.30353 2.30312 2.30338 0.770216 0.768769 0.767876 0.767619 0.767638 -0.770216 -0.768769 -0.767876 -0.767619 -0.767638 -2.3107 -2.30601 -2.30353 -2.30312 -2.30338 -3.85137 -3.84207 -3.8391 -3.83981 -3.84055 -5.39049 -5.376 -5.37712 -5.37884 -5.37968 -6.92954 -6.91861 -6.91924 -6.91943 -6.91951 6.91951 6.91943 6.91924 6.91861 6.92954 5.37968 5.37884 5.37712 5.376 5.39049 3.84055 3.83981 3.8391 3.84207 3.85137 2.30338 2.30312 2.30353 2.30601 2.3107 0.767638 0.767619 0.767876 0.768769 0.770216 -0.767638 -0.767619 -0.767876 -0.768769 -0.770216 -2.30338 -2.30312 -2.30353 -2.30601 -2.3107 -3.84055 -3.83981 -3.8391 -3.84207 -3.85137 -5.37968 -5.37884 -5.37712 -5.376 -5.39049 -6.91951 -6.91943 -6.91924 -6.91861 -6.92954 
</DataArray>
<DataArray Name="Strain_12" format="ascii" type="Float64">
-0.0272498 -0.0205888 -0.0101171 -0.00456259 -0.00130148 0.0100011 -0.00628417 -0.00850044 -0.00525524 -0.00170189 0.00778658 0.00823621 0.00229553 7.70782e-05 -0.000133153 0.00690193 0.0106525 0.00831997 0.00452154 0.00139435 0.00642323 0.0111729 0.0102069 0.00649715 0.00216006 0.00642323 0.0111729 0.0102069 0.00649715 0.00216006 0.00690193 0.0106525 0.00831997 0.00452154 0.00139435 0.00778658 0.00823621 0.00229553 7.70782e-05 -0.000133153 0.0100011 -0.00628417 -0.00850044 -0.00525524 -0.00170189 -0.0272498 -0.0205888 -0.0101171 -0.00456259 -0.00130148 0.00130148 0.00456259 0.0101171 0.0205888 0.0272498 0.00170189 0.00525524 0.00850044 0.00628417 -0.0100011 0.000133153 -7.70782e-05 -0.00229553 -0.00823621 -0.00778658 -0.00139435 -0.00452154 -0.00831997 -0.0106525 -0.00690193 -0.00216006 -0.00649715 -0.0102069 -0.0111729 -0.00642323 -0.00216006 -0.00649715 -0.0102069 -0.0111729 -0.00642323 -0.00139435 -0.00452154 -0.00831997 -0.0106525 -0.00690193 0.000133153 -7.70782e-05 -0.00229553 -0.00823621 -0.00778658 0.00170189 0.00525524 0.00850044 0.00628417 -0.0100011 0.00130148 0.00456259 0.0101171 0.0205888 0.0272498 
</DataArray>
<DataArray Name="Strain_13" format="ascii" type="Float64">
8.43445 8.43273 8.43331 8.43398 8.43438 6.55441 6.55682 6.55859 6.55945 6.55983 4.68103 4.68168 4.6836 4.68496 4.68556 2.80866 2.80883 2.80962 2.81062 2.81119 0.936194 0.936274 0.936488 0.936796 0.937012 -0.936194 -0.936274 -0.936488 -0.936796 -0.937012 -2.80866 -2.80883 -2.80962 -2.81062 -2.81119 -4.68103 -4.68168 -4.6836 -4.68496 -4.68556 -6.55441 -6.55682 -6.55859 -6.55945 -6.55983 -8.43445 -8.43273 -8.43331 -8.43398 -8.43438 8.43438 8.43398 8.43331 8.43273 8.43445 6.55983 6.55945 6.55859 6.55682 6.55441 4.68556 4.68496 4.6836 4.68168 4.68103 2.81119 2.81062 2.80962 2.80883 2.80866 0.937012 0.936796 0.936488 0.936274 0.936194 -0.937012 -0.936796 -0.936488 -0.936274 -0.936194 -2.81119 -2.81062 -2.80962 -2.80883 -2.80866 -4.68556 -4.68496 -4.6836 -4.68168 -4.68103 -6.55983 -6.55945 -6.55859 -6.55682 -6.55441 -8.43438 -8.43398 -8.43331 -8.43273 -8.43445 
</DataArray>
<DataArray Name="Strain_23" format="ascii" type="Float64">
8.44129 6.56119 4.68676 2.81232 0.937484 8.43817 6.56233 4.68611 2.8113 0.937064 8.43296 6.56029 4.68639 2.81173 0.937209 8.43051 6.55796 4.68503 2.81136 0.937165 8.42933 6.55687 4.6841 2.81082 0.937012 8.42933 6.55687 4.6841 2.81082 0.937012 8.43051 6.55796 4.68503 2.81136 0.937165 8.43296 6.56029 4.68639 2.81173 0.937209 8.43817 6.56233 4.68611 2.8113 0.937064 8.44129 6.56119 4.68676 2.81232 0.937484 -0.937484 -2.81232 -4.68676 -6.56119 -8.44129 -0.937064 -2.8113 -4.68611 -6.56233 -8.43817 -0.937209 -2.81173 -4.68639 -6.56029 -8.43296 -0.937165 -2.81136 -4.68503 -6.55796 -8.43051 -0.937012 -2.81082 -4.6841 -6.55687 -8.42933 -0.937012 -2.81082 -4.6841 -6.55687 -8.42933 -0.937165 -2.81136 -4.68503 -6.55796 -8.43051 -0.937209 -2.81173 -4.68639 -6.56029 -8.43296 -0.937064 -2.8113 -4.68611 -6.56233 -8.43817 -0.937484 -2.81232 -4.68676 -6.56119 -8.44129 
</DataArray>
<DataArray Name="Strain_33" format="ascii" type="Float64">
-0.045 -0.045 -0.045 -0.045 -0.045 -0.035 -0.035 -0.035 -0.035 -0.035 -0.025 -0.025 -0.025 -0.025 -0.025 -0.015 -0.015 -0.015 -0.015 -0.015 -0.005 -0.005 -0.005 -0.005 -0.005 0.005 0.005 0.005 0.005 0.005 0.015 0.015 0.015 0.015 0.015 0.025 0.025 0.025 0.025 0.025 0.035 0.035 0.035 0.035 0.035 0.045 0.045 0.045 0.045 0.045 -0.045 -0.045 -0.045 -0.045 -0.045 -0.035 -0.035 -0.035 -0.035 -0.035 -0.025 -0.025 -0.025 -0.025 -0.025 -0.015 -0.015 -0.015 -0.015 -0.015 -0.005 -0.005 -0.005 -0.005 -0.005 0.005 0.005 0.005 0.005 0.005 0.015 0.015 0.015 0.015 0.015 0.025 0.025 0.025 0.025 0.025 0.035 0.035 0.035 0.035 0.035 0.045 0.045 0.045 0.045 0.045 
</DataArray>
<DataArray Name="Stress_11" format="ascii" type="Float64">
3180.6 3181.59 3182.5 3183.03 3183.26 2479.14 2477.66 2476.79 2476.45 2476.33 1770.33 1770.4 1769.93 1769.53 1769.33 1062.27 1062.25 1062.14 1061.96 1061.84 354.08 354.094 354.065 354.02 353.984 -354.08 -354.094 -354.065 -354.02 -353.984 -1062.27 -1062.25 -1062.14 -1061.96 -1061.84 -1770.33 -1770.4 -1769.93 -1769.53 -1769.33 -2479.14 -2477.66 -2476.79 -2476.45 -2476.33 -3180.6 -3181.59 -3182.5 -3183.03 -3183.26 3183.26 3183.03 3182.5 3181.59 3180.6 2476.33 2476.45 2476.79 2477.66 2479.14 1769.33 1769.53 1769.93 1770.4 1770.33 1061.84 1061.96 1062.14 1062.25 1062.27 353.984 354.02 354.065 354.094 354.08 -353.984 -354.02 -354.065 -354.094 -354.08 -1061.84 -1061.96 -1062.14 -1062.25 -1062.27 -1769.33 -1769.53 -1769.93 -1770.4 -1770.33 -2476.33 -2476.45 -2476.79 -2477.66 -2479.14 -3183.26 -3183.03 -3182.5 -3181.59 -3180.6 
</DataArray>
<DataArray Name="Stress_22" format="ascii" type="Float64">
1205.38 1204.18 1204.38 1204.47 1204.51 938.485 936.411 936.399 936.553 936.636 670.415 669.245 668.775 668.785 668.84 402.244 401.647 401.308 401.215 401.222 134.078 133.897 133.777 133.733 133.727 -134.078 -133.897 -133.777 -133.733 -133.727 -402.244 -401.647 -401.308 -401.215 -401.222 -670.415 -669.245 -668.775 -668.785 -668.84 -938.485 -936.411 -936.399 -936.553 -936.636 -1205.38 -1204.18 -1204.38 -1204.47 -1204.51 1204.51 1204.47 1204.38 1204.18 1205.38 936.636 936.553 936.399 936.411 938.485 668.84 668.785 668.775 669.245 670.415 401.222 401.215 401.308 401.647 402.244 133.727 133.733 133.777 133.897 134.078 -133.727 -133.733 -133.777 -133.897 -134.078 -401.222 -401.215 -401.308 -401.647 -402.244 -668.84 -668.785 -668.775 -669.245 -670.415 -936.636 -936.553 -936.399 -936.411 -938.485 -1204.51 -1204.47 -1204.38 -1204.18 -1205.38 
</DataArray>
<DataArray Name="Stress_12" format="ascii" type="Float64">
40.7077 31.6736 22.8774 13.8107 4.61584 42.7409 32.466 22.963 13.7675 4.59172 42.5931 33.2545 23.5582 14.0629 4.67872 42.5322 33.3757 23.8827 14.3055 4.76251 42.4999 33.3988 23.9819 14.4114 4.80386 42.4999 33.3988 23.9819 14.4114 4.80386 42.5322 33.3757 23.8827 14.3055 4.76251 42.5931 33.2545 23.5582 14.0629 4.67872 42.7409 32.466 22.963 13.7675 4.59172 40.7077 31.6736 22.8774 13.8107 4.61584 -4.61584 -13.8107 -22.8774 -31.6736 -40.7077 -4.59172 -13.7675 -22.963 -32.466 -42.7409 -4.67872 -14.0629 -23.5582 -33.2545 -42.5931 -4.76251 -14.3055 -23.8827 -33.3757 -42.5322 -4.80386 -14.4114 -23.9819 -33.3988 -42.4999 -4.80386 -14.4114 -23.9819 -33.3988 -42.4999 -4.76251 -14.3055 -23.8827 -33.3757 -42.5322 -4.67872 -14.0629 -23.5582 -33.2545 -42.5931 -4.59172 -13.7675 -22.963 -32.466 -42.7409 -4.61584 -13.8107 -22.8774 -31.6736 -40.7077 
</DataArray>
<DataArray Name="Stress_13" format="ascii" type="Float64">
2017.38 2017.76 2018.16 2018.44 2018.57 1570.55 1570.44 1570.27 1570.2 1570.18 1121.55 1121.78 1121.84 1121.82 1121.79 672.962 673.04 673.119 673.157 673.166 224.314 224.349 224.374 224.392 224.401 -224.314 -224.349 -224.374 -224.392 -224.401 -672.962 -673.04 -673.119 -673.157 -673.166 -1121.55 -1121.78 -1121.84 -1121.82 -1121.79 -1570.55 -1570.44 -1570.27 -1570.2 -1570.18 -2017.38 -2017.76 -2018.16 -2018.44 -2018.57 2018.57 2018.44 2018.16 2017.76 2017.38 1570.18 1570.2 1570.27 1570.44 1570.55 1121.79 1121.82 1121.84 1121.78 1121.55 673.166 673.157 673.119 673.04 672.962 224.401 224.392 224.374 224.349 224.314 -224.401 -224.392 -224.374 -224.349 -224.314 -673.166 -673.157 -673.119 -673.04 -672.962 -1121.79 -1121.82 -1121.84 -1121.78 -1121.55 -1570.18 -1570.2 -1570.27 -1570.44 -1570.55 -2018.57 -2018.44 -2018.16 -2017.76 -2017.38 
</DataArray>
<DataArray Name="Stress_23" format="ascii" type="Float64">
464.135 360.763 257.721 154.655 51.5551 464.15 360.897 257.694 154.595 51.53 463.852 360.857 257.763 154.646 51.5458 463.713 360.741 257.718 154.647 51.551 463.645 360.683 257.677 154.628 51.5465 463.645 360.683 257.677 154.628 51.5465 463.713 360.741 257.718 154.647 51.551 463.852 360.857 257.763 154.646 51.5458 464.15 360.897 257.694 154.595 51.53 464.135 360.763 257.721 154.655 51.5551 -51.5551 -154.655 -257.721 -360.763 -464.135 -51.53 -154.595 -257.694 -360.897 -464.15 -51.5458 -154.646 -257.763 -360.857 -463.852 -51.551 -154.647 -257.718 -360.741 -463.713 -51.5465 -154.628 -257.677 -360.683 -463.645 -51.5465 -154.628 -257.677 -360.683 -463.645 -51.551 -154.647 -257.718 -360.741 -463.713 -51.5458 -154.646 -257.763 -360.857 -463.852 -51.53 -154.595 -257.694 -360.897 -464.15 -51.5551 -154.655 -257.721 -360.763 -464.135 
</DataArray>
<DataArray Name="Stress_33" format="ascii" type="Float64">
2039.11 2039.32 2039.79 2040.08 2040.22 1588.29 1587.44 1587.13 1587.03 1587.01 1134.25 1134.15 1133.96 1133.85 1133.79 680.585 680.498 680.441 680.392 680.365 226.855 226.84 226.821 226.809 226.802 -226.855 -226.84 -226.821 -226.809 -226.802 -680.585 -680.498 -680.441 -680.392 -680.365 -1134.25 -1134.15 -1133.96 -1133.85 -1133.79 -1588.29 -1587.44 -1587.13 -1587.03 -1587.01 -2039.11 -2039.32 -2039.79 -2040.08 -2040.22 2040.22 2040.08 2039.79 2039.32 2039.11 1587.01 1587.03 1587.13 1587.44 1588.29 1133.79 1133.85 1133.96 1134.15 1134.25 680.365 680.392 680.441 680.498 680.585 226.802 226.809 226.821 226.84 226.855 -226.802 -226.809 -226.821 -226.84 -226.855 -680.365 -680.392 -680.441 -680.498 -680.585 -1133.79 -1133.85 -1133.96 -1134.15 -1134.25 -1587.01 -1587.03 -1587.13 -1587.44 -1588.29 -2040.22 -2040.08 -2039.79 -2039.32 -2039.11 
</DataArray>
</CellData>
<Points>
<DataArray NumberOfComponents="3" format="ascii" type="Float64">
-0.05 -0.05 0 -0.05 0 0 -0.05 -0.04 0 -0.05 -0.03 0 -0.05 -0.02 0 -0.05 -0.01 0 0 0 0 -0.04 0 0 -0.03 0 0 -0.02 0 0 -0.01 0 0 0 -0.05 0 0 -0.01 0 0 -0.02 0 0 -0.03 0 0 -0.04 0 -0.01 -0.05 0 -0.02 -0.05 0 -0.03 -0.05 0 -0.04 -0.05 0 -0.04 -0.04 0 -0.04 -0.03 0 -0.04 -0.02 0 -0.04 -0.01 0 -0.03 -0.04 0 -0.03 -0.03 0 -0.03 -0.02 0 -0.03 -0.01 0 -0.02 -0.04 0 -0.02 -0.03 0 -0.02 -0.02 0 -0.02 -0.01 0 -0.01 -0.04 0 -0.01 -0.03 0 -0.01 -0.02 0 -0.01 -0.01 0 -0.05 0.05 0 -0.05 0.01 0 -0.05 0.02 0 -0.05 0.03 0 -0.05 0.04 0 0 0.05 0 -0.04 0.05 0 -0.03 0.05 0 -0.02 0.05 0 -0.01 0.05 0 0 0.04 0 0 0.03 0 0 0.02 0 0 0.01 0 -0.04 0.01 0 -0.04 0.02 0 -0.04 0.03 0 -0.04 0.04 0 -0.03 0.01 0 -0.03 0.02 0 -0.03 0.03 0 -0.03 0.04 0 -0.02 0.01 0 -0.02 0.02 0 -0.02 0.03 0 -0.02 0.04 0 -0.01 0.01 0 -0.01 0.02 0 -0.01 0.03 0 -0.01 0.04 0 0.05 0 0 0.01 0 0 0.02 0 0 0.03 0 0 0.04 0 0 0.05 -0.05 0 0.05 -0.01 0 0.05 -0.02 0 0.05 -0.03 0 0.05 -0.04 0 0.04 -0.05 0 0.03 -0.05 0 0.02 -0.05 0 0.01 -0.05 0 0.01 -0.04 0 0.01 -0.03 0 0.01 -0.02 0 0.01 -0.01 0 0.02 -0.04 0 0.02 -0.03 0 0.02 -0.02 0 0.02 -0.01 0 0.03 -0.04 0 0.03 -0.03 0 0.03 -0.02 0 0.03 -0.01 0 0.04 -0.04 0 0.04 -0.03 0 0.04 -0.02 0 0.04 -0.01 0 0.05 0.05 0 0.01 0.05 0 0.02 0.05 0 0.03 0.05 0 0.04 0.05 0 0.05 0.04 0 0.05 0.03 0 0.05 0.02 0 0.05 0.01 0 0.01 0.01 0 0.01 0.02 0 0.01 0.03 0 0.01 0.04 0 0.02 0.01 0 0.02 0.02 0 0.02 0.03 0 0.02 0.04 0 0.03 0.01 0 0.03 0.02 0 0.03 0.03 0 0.03 0.04 0 0.04 0.01 0 0.04 0.02 0 0.04 0.03 0 0.04 0.04 0 
</DataArray>
</Points>
<Cells>
<DataArray Name="connectivity" format="ascii" type="Int64">
0 19 20 2 19 18 24 20 18 17 28 24 17 16 32 28 16 11 15 32 2 20 21 3 20 24 25 21 24 28 29 25 28 32 33 29 32 15 14 33 3 21 22 4 21 25 26 22 25 29 30 26 29 33 34 30 33 14 13 34 4 22 23 5 22 26 27 23 26 30 31 27 30 34 35 31 34 13 12 35 5 23 7 1 23 27 8 7 27 31 9 8 31 35 10 9 35 12 6 10 1 7 50 37 7 8 54 50 8 9 58 54 9 10 62 58 10 6 49 62 37 50 51 38 50 54 55 51 54 58 59 55 58 62 63 59 62 49 48 63 38 51 52 39 51 55 56 52 55 59 60 56 59 63 64 60 63 48 47 64 39 52 53 40 52 56 57 53 56 60 61 57 60 64 65 61 64 47 46 65 40 53 42 36 53 57 43 42 57 61 44 43 61 65 45 44 65 46 41 45 11 79 80 15 79 78 84 80 78 77 88 84 77 76 92 88 76 71 75 92 15 80 81 14 80 84 85 81 84 88 89 85 88 92 93 89 92 75 74 93 14 81 82 13 81 85 86 82 85 89 90 86 89 93 94 90 93 74 73 94 13 82 83 12 82 86 87 83 86 90 91 87 90 94 95 91 94 73 72 95 12 83 67 6 83 87 68 67 87 91 69 68 91 95 70 69 95 72 66 70 6 67 105 49 67 68 109 105 68 69 113 109 69 70 117 113 70 66 104 117 49 105 106 48 105 109 110 106 109 113 114 110 113 117 118 114 117 104 103 118 48 106 107 47 106 110 111 107 110 114 115 111 114 118 119 115 118 103 102 119 47 107 108 46 107 111 112 108 111 115 116 112 115 119 120 116 119 102 101 120 46 108 97 41 108 112 98 97 112 116 99 98 116 120 100 99 120 101 96 100 
</DataArray>
<DataArray Name="offsets" format="ascii" type="Int64">
4 8 12 16 20 24 28 32 36 40 44 48 52 56 60 64 68 72 76 80 84 88 92 96 100 104 108 112 116 120 124 128 132 136 140 144 148 152 156 160 164 168 172 176 180 184 188 192 196 200 204 208 212 216 220 224 228 232 236 240 244 248 252 256 260 264 268 272 276 280 284 288 292 296 300 304 308 312 316 320 324 328 332 336 340 344 348 352 356 360 364 368 372 376 380 384 388 392 396 400 
</DataArray>
<DataArray Name="types" format="ascii" type="Int8">
9 9 9 9 9 9 9 9 9 9 9 9 9 9 9 9 9 9 9 9 9 9 9 9 9 9 9 9 9 9 9 9 9 9 9 9 9 9 9 9 9 9 9 9 9 9 9 9 9 9 9 9 9 9 9 9 9 9 9 9 9 9 9 9 9 9 9 9 9 9 9 9 9 9 9 9 9 9 9 9 9 9 9 9 9 9 9 9 9 9 9 9 9 9 9 9 9 9 9 9 
</DataArray>
</Cells>
</Piece>
</UnstructuredGrid>
</VTKFile>
