<?xml version="1.0"?>
<VTKFile byte_order="LittleEndian" type="UnstructuredGrid" version="0.1">
<UnstructuredGrid>
<Piece NumberOfCells="50" NumberOfPoints="205">
<PointData>
<DataArray Name="Warping_X" format="ascii" type="Float64">
3.67672e-12 5.46723e-12 6.59248e-12 5.24472e-12 7.95657e-12 6.71037e-12 8.93512e-12 7.44731e-12 9.27104e-12 7.70621e-12 9.04797e-12 7.49755e-12 8.4185e-12 7.02456e-12 7.57761e-12 6.46757e-12 6.72298e-12 5.96153e-12 6.00521e-12 5.6114e-12 5.51317e-12 5.44415e-12 5.44018e-12 5.44289e-12 5.4531e-12 5.60298e-12 5.47814e-12 5.74257e-12 5.72081e-12 6.38434e-12 6.12222e-12 7.21846e-12 6.61674e-12 8.14667e-12 7.07914e-12 8.98692e-12 7.36385e-12 9.49356e-12 7.32508e-12 9.43382e-12 6.83134e-12 8.75386e-12 5.78323e-12 7.43097e-12 4.29154e-12 3.93899e-12 4.29103e-12 4.89133e-12 5.52905e-12 5.65965e-12 6.13072e-12 6.75325e-12 7.00676e-12 7.0157e-12 7.43797e-12 8.03849e-12 8.04514e-12 7.76843e-12 8.18091e-12 8.76072e-12 8.44115e-12 7.99043e-12 8.36093e-12 8.88403e-12 8.3289e-12 7.738e-12 8.04734e-12 8.48259e-12 7.84559e-12 7.20209e-12 7.43458e-12 7.76455e-12 7.17058e-12 6.57968e-12 6.73385e-12 6.95771e-12 6.47479e-12 6.01806e-12 6.10271e-12 6.23174e-12 5.89566e-12 5.6165e-12 5.63987e-12 5.68545e-12 5.51566e-12 1.57536e-11 5.46333e-12 6.01537e-12 6.208e-12 7.41408e-12 7.96536e-12 9.70503e-12 1.07457e-11 1.2878e-11 1.42641e-11 1.64366e-11 1.66709e-11 1.732e-11 1.70448e-11 1.48431e-11 1.27829e-11 1.15063e-11 9.50154e-12 8.7674e-12 7.20421e-12 6.82367e-12 5.86041e-12 5.71363e-12 5.55743e-12 5.95101e-12 5.88127e-12 5.86827e-12 6.42838e-12 7.32103e-12 7.22635e-12 7.20743e-12 8.23151e-12 9.6122e-12 9.52417e-12 9.50708e-12 1.10311e-11 1.28184e-11 1.27965e-11 1.2768e-11 1.47985e-11 -1.40261e-11 3.49705e-13 -6.80992e-13 -5.0243e-12 -5.78986e-12 -9.17458e-12 -9.83443e-12 -1.24846e-11 -1.30543e-11 -1.49554e-11 -1.54024e-11 -1.65944e-11 -1.68667e-11 -1.73883e-11 -1.74169e-11 -1.73302e-11 -1.70415e-11 -1.64249e-11 -1.57517e-11 -1.48388e-11 -1.38524e-11 -1.3593e-11 -1.33114e-11 -1.34891e-11 -1.47788e-11 -1.55767e-11 -1.6447e-11 -1.68637e-11 -1.72324e-11 -1.72307e-11 -1.70404e-11 -1.66929e-11 -1.58675e-11 -1.52443e-11 -1.37396e-11 -1.28973e-11 -1.06856e-11 -9.71224e-12 -6.79182e-12 -5.70894e-12 -2.11839e-12 -1.28437e-12 2.87862e-12 1.62764e-12 -8.81449e-13 -1.13034e-12 -1.2369e-12 -3.52199e-12 -5.85257e-12 -5.93622e-12 -5.82748e-12 -7.9512e-12 -9.89308e-12 -9.95802e-12 -9.82533e-12 -1.159e-11 -1.31032e-11 -1.31544e-11 -1.30193e-11 -1.43812e-11 -1.54485e-11 -1.54917e-11 -1.53631e-11 -1.62937e-11 -1.69065e-11 -1.69404e-11 -1.68144e-11 -1.73003e-11 -1.74529e-11 -1.74803e-11 -1.73551e-11 -1.73868e-11 -1.70689e-11 -1.70884e-11 -1.6976e-11 -1.65235e-11 -1.577e-11 -1.57538e-11 -1.56738e-11 -1.47157e-11 
</DataArray>
<DataArray Name="Warping_Y" format="ascii" type="Float64">
1.09996e-11 -1.99447e-11 1.00573e-11 5.67338e-12 4.51247e-12 5.5383e-13 -1.12244e-12 -4.42493e-12 -6.17982e-12 -8.75502e-12 -1.05606e-11 -1.24205e-11 -1.41092e-11 -1.53361e-11 -1.67965e-11 -1.75248e-11 -1.86369e-11 -1.89995e-11 -1.96667e-11 -1.9798e-11 -1.99756e-11 -1.98913e-11 -1.98954e-11 -1.9915e-11 -1.9929e-11 1.30836e-11 -1.98572e-11 -1.97799e-11 -1.9248e-11 -1.90046e-11 -1.80126e-11 -1.7517e-11 -1.61665e-11 -1.5292e-11 -1.37342e-11 -1.23229e-11 -1.07415e-11 -8.63353e-12 -7.17293e-12 -4.24607e-12 -2.96405e-12 7.49043e-13 1.87642e-12 6.54454e-12 7.73616e-12 1.1346e-11 1.17811e-11 1.23915e-11 9.00508e-12 5.80617e-12 5.99336e-12 6.30382e-12 3.30979e-12 5.41975e-13 5.21954e-13 6.49054e-13 -1.97241e-12 -4.42174e-12 -4.44529e-12 -4.34264e-12 -6.68021e-12 -8.77128e-12 -8.79874e-12 -8.71765e-12 -1.07163e-11 -1.24426e-11 -1.24677e-11 -1.24016e-11 -1.40285e-11 -1.53676e-11 -1.53959e-11 -1.53513e-11 -1.65976e-11 -1.75521e-11 -1.75765e-11 -1.75532e-11 -1.84229e-11 -1.90144e-11 -1.90304e-11 -1.90216e-11 -1.9524e-11 -1.97912e-11 -1.97896e-11 -1.97862e-11 -1.99437e-11 -1.90101e-11 -1.9721e-11 -1.98179e-11 -1.91462e-11 -1.95038e-11 -1.8401e-11 -1.9159e-11 -1.76493e-11 -1.88873e-11 -1.68933e-11 -1.66553e-11 -1.8387e-11 -1.79487e-11 -1.74097e-11 -1.89845e-11 -1.71884e-11 -1.91432e-11 -1.79537e-11 -1.9411e-11 -1.87604e-11 -1.971e-11 -1.94775e-11 -1.99204e-11 -1.98373e-11 -1.97421e-11 -1.96651e-11 -1.95693e-11 -1.94267e-11 -1.93622e-11 -1.91988e-11 -1.89852e-11 -1.88805e-11 -1.89272e-11 -1.86686e-11 -1.83288e-11 -1.83475e-11 -1.85717e-11 -1.82053e-11 -1.77196e-11 -1.79132e-11 2.06833e-11 1.19852e-11 1.51766e-11 1.42975e-11 1.71543e-11 1.62478e-11 1.86599e-11 1.78181e-11 1.97717e-11 1.90351e-11 2.04967e-11 1.99568e-11 2.09109e-11 2.06369e-11 2.10715e-11 2.1134e-11 2.10499e-11 2.15132e-11 2.08874e-11 2.18764e-11 2.20613e-11 2.10627e-11 2.13562e-11 2.16462e-11 2.07616e-11 2.17094e-11 2.09084e-11 2.1417e-11 2.09701e-11 2.10207e-11 2.08882e-11 2.04708e-11 2.05915e-11 1.9702e-11 2.00175e-11 1.86629e-11 1.91045e-11 1.72804e-11 1.78063e-11 1.55449e-11 1.60877e-11 1.32992e-11 1.41395e-11 1.31464e-11 1.46298e-11 1.41197e-11 1.36913e-11 1.53143e-11 1.66067e-11 1.61537e-11 1.58036e-11 1.71784e-11 1.819e-11 1.7798e-11 1.75012e-11 1.86026e-11 1.93767e-11 1.9056e-11 1.88226e-11 1.96561e-11 2.01971e-11 1.9962e-11 1.98005e-11 2.03889e-11 2.07157e-11 2.05761e-11 2.04959e-11 2.08627e-11 2.09902e-11 2.09561e-11 2.09661e-11 2.11383e-11 2.10907e-11 2.11667e-11 2.12713e-11 2.12808e-11 2.10629e-11 2.12643e-11 2.14737e-11 2.13721e-11 
</DataArray>
<DataArray Name="Warping_Z" format="ascii" type="Float64">
0 0 0 0 0 0 0 0 0 0 0 0 0 0 0 0 0 0 0 0 0 0 0 0 0 0 0 0 0 0 0 0 0 0 0 0 0 0 0 0 0 0 0 0 0 0 0 0 0 0 0 0 0 0 0 0 0 0 0 0 0 0 0 0 0 0 0 0 0 0 0 0 0 0 0 0 0 0 0 0 0 0 0 0 0 0 0 0 0 0 0 0 0 0 0 0 0 0 0 0 0 0 0 0 0 0 0 0 0 0 0 0 0 0 0 0 0 0 0 0 0 0 0 0 0 0 0 0 0 0 0 0 0 0 0 0 0 0 0 0 0 0 0 0 0 0 0 0 0 0 0 0 0 0 0 0 0 0 0 0 0 0 0 0 0 0 0 0 0 0 0 0 0 0 0 0 0 0 0 0 0 0 0 0 0 0 0 0 0 0 0 0 0 0 0 0 0 0 0 0 0 0 0 0 0 
</DataArray>
</PointData>
<CellData>
<DataArray Name="MaterialId" format="ascii" type="Float64">
1 1 1 1 1 1 1 1 1 1 1 1 1 1 1 1 1 1 1 1 1 1 1 1 1 1 1 1 1 1 1 1 1 1 1 1 1 1 1 1 1 1 1 1 1 1 1 1 1 1 
</DataArray>
<DataArray Name="FiberAngle" format="ascii" type="Float64">
0 0 0 0 0 0 0 0 0 0 0 0 0 0 0 0 0 0 0 0 0 0 0 0 0 0 0 0 0 0 0 0 0 0 0 0 0 0 0 0 0 0 0 0 0 0 0 0 0 0 
</DataArray>
<DataArray Name="Strain_11" format="ascii" type="Float64">
-5.24653e-11 -4.20917e-11 -3.38018e-11 -2.8395e-11 -2.36916e-11 -1.96858e-11 -1.56195e-11 -1.13588e-11 -6.74037e-12 -1.53325e-12 -5.8526e-11 -5.0059e-11 -4.41829e-11 -3.75838e-11 -3.17543e-11 -2.62886e-11 -2.09566e-11 -1.54946e-11 -9.77066e-12 -3.52606e-12 5.47153e-12 1.50552e-11 2.51777e-11 3.52329e-11 4.23355e-11 4.41326e-12 1.38058e-11 2.37078e-11 3.36182e-11 4.40905e-11 -5.86069e-11 -5.04683e-11 -4.10204e-11 -3.25905e-11 -2.38096e-11 -1.48017e-11 -5.54762e-12 3.89891e-12 1.31866e-11 2.21009e-11 -5.41978e-11 -4.80689e-11 -4.18623e-11 -3.34453e-11 -2.45416e-11 -1.51971e-11 -5.66221e-12 3.96955e-12 1.36363e-11 2.28758e-11 
</DataArray>
<DataArray Name="Strain_22" format="ascii" type="Float64">
-6.08774e-11 -5.78484e-11 -5.45463e-11 -4.77972e-11 -4.03445e-11 -3.21424e-11 -2.40057e-11 -1.60695e-11 -8.53548e-12 -1.51441e-12 -6.27593e-11 -5.82966e-11 -5.14608e-11 -4.51032e-11 -3.7979e-11 -3.04094e-11 -2.26996e-11 -1.51386e-11 -7.8819e-12 -1.12629e-12 5.7269e-12 1.22736e-11 1.83746e-11 2.44441e-11 3.42016e-11 5.79488e-12 1.36564e-11 2.10667e-11 2.841e-11 3.6029e-11 -6.02941e-11 -5.09529e-11 -4.30755e-11 -3.39794e-11 -2.52812e-11 -1.67754e-11 -8.5014e-12 -3.98327e-13 7.79102e-12 1.68109e-11 -5.64326e-11 -4.45822e-11 -3.42611e-11 -2.57229e-11 -1.76761e-11 -1.00303e-11 -2.57101e-12 4.80866e-12 1.20943e-11 2.02587e-11 
</DataArray>
<DataArray Name="Strain_12" format="ascii" type="Float64">
3.86249e-11 1.53063e-11 7.21253e-12 9.89126e-14 -3.92959e-12 -6.41266e-12 -7.40964e-12 -7.07218e-12 -5.6281e-12 -2.0971e-12 3.33813e-11 6.27852e-12 1.21299e-13 -1.62147e-12 -1.18132e-12 -6.33685e-13 -7.60116e-13 -1.3793e-12 -1.94944e-12 -6.57571e-13 3.84163e-12 7.36653e-12 8.49744e-12 4.96334e-12 -1.15475e-11 2.12749e-12 2.5091e-12 7.57989e-13 5.266e-13 6.11614e-12 3.58026e-11 1.28911e-11 6.06032e-12 3.40923e-12 2.2834e-12 1.90208e-12 1.79473e-12 1.93179e-12 1.02704e-12 -5.2083e-12 3.43469e-11 1.61903e-11 1.05262e-11 5.43137e-12 2.35146e-12 -8.67153e-14 -1.76072e-12 -2.94452e-12 -2.47446e-12 2.76389e-12 
</DataArray>
<DataArray Name="Strain_13" format="ascii" type="Float64">
0 0 0 0 0 0 0 0 0 0 0 0 0 0 0 0 0 0 0 0 0 0 0 0 0 0 0 0 0 0 0 0 0 0 0 0 0 0 0 0 0 0 0 0 0 0 0 0 0 0 
</DataArray>
<DataArray Name="Strain_23" format="ascii" type="Float64">
0 0 0 0 0 0 0 0 0 0 0 0 0 0 0 0 0 0 0 0 0 0 0 0 0 0 0 0 0 0 0 0 0 0 0 0 0 0 0 0 0 0 0 0 0 0 0 0 0 0 
</DataArray>
<DataArray Name="Strain_33" format="ascii" type="Float64">
1 1 1 1 1 1 1 1 1 1 1 1 1 1 1 1 1 1 1 1 1 1 1 1 1 1 1 1 1 1 1 1 1 1 1 1 1 1 1 1 1 1 1 1 1 1 1 1 1 1 
</DataArray>
<DataArray Name="Stress_11" format="ascii" type="Float64">
3.40111e+12 3.40111e+12 3.40111e+12 3.40111e+12 3.40111e+12 3.40111e+12 3.40111e+12 3.40111e+12 3.40111e+12 3.40111e+12 3.40111e+12 3.40111e+12 3.40111e+12 3.40111e+12 3.40111e+12 3.40111e+12 3.40111e+12 3.40111e+12 3.40111e+12 3.40111e+12 3.40111e+12 3.40111e+12 3.40111e+12 3.40111e+12 3.40111e+12 3.40111e+12 3.40111e+12 3.40111e+12 3.40111e+12 3.40111e+12 3.40111e+12 3.40111e+12 3.40111e+12 3.40111e+12 3.40111e+12 3.40111e+12 3.40111e+12 3.40111e+12 3.40111e+12 3.40111e+12 3.40111e+12 3.40111e+12 3.40111e+12 3.40111e+12 3.40111e+12 3.40111e+12 3.40111e+12 3.40111e+12 3.40111e+12 3.40111e+12 
</DataArray>
<DataArray Name="Stress_22" format="ascii" type="Float64">
3.40111e+12 3.40111e+12 3.40111e+12 3.40111e+12 3.40111e+12 3.40111e+12 3.40111e+12 3.40111e+12 3.40111e+12 3.40111e+12 3.40111e+12 3.40111e+12 3.40111e+12 3.40111e+12 3.40111e+12 3.40111e+12 3.40111e+12 3.40111e+12 3.40111e+12 3.40111e+12 3.40111e+12 3.40111e+12 3.40111e+12 3.40111e+12 3.40111e+12 3.40111e+12 3.40111e+12 3.40111e+12 3.40111e+12 3.40111e+12 3.40111e+12 3.40111e+12 3.40111e+12 3.40111e+12 3.40111e+12 3.40111e+12 3.40111e+12 3.40111e+12 3.40111e+12 3.40111e+12 3.40111e+12 3.40111e+12 3.40111e+12 3.40111e+12 3.40111e+12 3.40111e+12 3.40111e+12 3.40111e+12 3.40111e+12 3.40111e+12 
</DataArray>
<DataArray Name="Stress_12" format="ascii" type="Float64">
2.68095 1.06241 0.500621 0.00686552 -0.272753 -0.445103 -0.514303 -0.49088 -0.390646 -0.14556 2.317 0.435792 0.00841938 -0.112546 -0.0819955 -0.0439841 -0.0527597 -0.0957374 -0.13531 -0.045642 0.266648 0.511311 0.589808 0.344505 -0.801512 0.147669 0.174157 0.052612 0.0365513 0.424522 2.48506 0.894773 0.420647 0.236635 0.15849 0.132023 0.124572 0.134085 0.0712869 -0.361508 2.38402 1.12377 0.730624 0.376992 0.163215 -0.00601891 -0.122212 -0.204379 -0.171753 0.191842 
</DataArray>
<DataArray Name="Stress_13" format="ascii" type="Float64">
0 0 0 0 0 0 0 0 0 0 0 0 0 0 0 0 0 0 0 0 0 0 0 0 0 0 0 0 0 0 0 0 0 0 0 0 0 0 0 0 0 0 0 0 0 0 0 0 0 0 
</DataArray>
<DataArray Name="Stress_23" format="ascii" type="Float64">
0 0 0 0 0 0 0 0 0 0 0 0 0 0 0 0 0 0 0 0 0 0 0 0 0 0 0 0 0 0 0 0 0 0 0 0 0 0 0 0 0 0 0 0 0 0 0 0 0 0 
</DataArray>
<DataArray Name="Stress_33" format="ascii" type="Float64">
3.53993e+12 3.53993e+12 3.53993e+12 3.53993e+12 3.53993e+12 3.53993e+12 3.53993e+12 3.53993e+12 3.53993e+12 3.53993e+12 3.53993e+12 3.53993e+12 3.53993e+12 3.53993e+12 3.53993e+12 3.53993e+12 3.53993e+12 3.53993e+12 3.53993e+12 3.53993e+12 3.53993e+12 3.53993e+12 3.53993e+12 3.53993e+12 3.53993e+12 3.53993e+12 3.53993e+12 3.53993e+12 3.53993e+12 3.53993e+12 3.53993e+12 3.53993e+12 3.53993e+12 3.53993e+12 3.53993e+12 3.53993e+12 3.53993e+12 3.53993e+12 3.53993e+12 3.53993e+12 3.53993e+12 3.53993e+12 3.53993e+12 3.53993e+12 3.53993e+12 3.53993e+12 3.53993e+12 3.53993e+12 3.53993e+12 3.53993e+12 
</DataArray>
</CellData>
<Points>
<DataArray NumberOfComponents="3" format="ascii" type="Float64">
0.06 0.06 0 0.06 0.94 0 0.06 0.104 0 0.06 0.148 0 0.06 0.192 0 0.06 0.236 0 0.06 0.28 0 0.06 0.324 0 0.06 0.368 0 0.06 0.412 0 0.06 0.456 0 0.06 0.5 0 0.06 0.544 0 0.06 0.588 0 0.06 0.632 0 0.06 0.676 0 0.06 0.72 0 0.06 0.764 0 0.06 0.808 0 0.06 0.852 0 0.06 0.896 0 0 1 0 0.015 0.985 0 0.03 0.97 0 0.045 0.955 0 0 0 0 0 0.95 0 0 0.9 0 0 0.85 0 0 0.8 0 0 0.75 0 0 0.7 0 0 0.65 0 0 0.6 0 0 0.55 0 0 0.5 0 0 0.45 0 0 0.4 0 0 0.35 0 0 0.3 0 0 0.25 0 0 0.2 0 0 0.15 0 0 0.1 0 0 0.05 0 0.045 0.045 0 0.03 0.03 0 0.015 0.015 0 0.03 0.077 0 0.045 0.136 0 0.03 0.124 0 0.015 0.112 0 0.03 0.171 0 0.045 0.227 0 0.03 0.218 0 0.015 0.209 0 0.03 0.265 0 0.045 0.318 0 0.03 0.312 0 0.015 0.306 0 0.03 0.359 0 0.045 0.409 0 0.03 0.406 0 0.015 0.403 0 0.03 0.453 0 0.045 0.5 0 0.03 0.5 0 0.015 0.5 0 0.03 0.547 0 0.045 0.591 0 0.03 0.594 0 0.015 0.597 0 0.03 0.641 0 0.045 0.682 0 0.03 0.688 0 0.015 0.694 0 0.03 0.735 0 0.045 0.773 0 0.03 0.782 0 0.015 0.791 0 0.03 0.829 0 0.045 0.864 0 0.03 0.876 0 0.015 0.888 0 0.03 0.923 0 0.5 0.94 0 0.104 0.94 0 0.148 0.94 0 0.192 0.94 0 0.236 0.94 0 0.28 0.94 0 0.324 0.94 0 0.368 0.94 0 0.412 0.94 0 0.456 0.94 0 0.5 1 0 0.5 0.955 0 0.5 0.97 0 0.5 0.985 0 0.45 1 0 0.4 1 0 0.35 1 0 0.3 1 0 0.25 1 0 0.2 1 0 0.15 1 0 0.1 1 0 0.05 1 0 0.077 0.97 0 0.136 0.955 0 0.124 0.97 0 0.112 0.985 0 0.171 0.97 0 0.227 0.955 0 0.218 0.97 0 0.209 0.985 0 0.265 0.97 0 0.318 0.955 0 0.312 0.97 0 0.306 0.985 0 0.359 0.97 0 0.409 0.955 0 0.406 0.97 0 0.403 0.985 0 0.453 0.97 0 1 0 0 0.05 0 0 0.1 0 0 0.15 0 0 0.2 0 0 0.25 0 0 0.3 0 0 0.35 0 0 0.4 0 0 0.45 0 0 0.5 0 0 0.55 0 0 0.6 0 0 0.65 0 0 0.7 0 0 0.75 0 0 0.8 0 0 0.85 0 0 0.9 0 0 0.95 0 0 1 0.06 0 1 0.015 0 1 0.03 0 1 0.045 0 0.953 0.06 0 0.906 0.06 0 0.859 0.06 0 0.812 0.06 0 0.765 0.06 0 0.718 0.06 0 0.671 0.06 0 0.624 0.06 0 0.577 0.06 0 0.53 0.06 0 0.483 0.06 0 0.436 0.06 0 0.389 0.06 0 0.342 0.06 0 0.295 0.06 0 0.248 0.06 0 0.201 0.06 0 0.154 0.06 0 0.107 0.06 0 0.0785 0.03 0 0.1135 0.015 0 0.127 0.03 0 0.1405 0.045 0 0.1755 0.03 0 0.212 0.015 0 0.224 0.03 0 0.236 0.045 0 0.2725 0.03 0 0.3105 0.015 0 0.321 0.03 0 0.3315 0.045 0 0.3695 0.03 0 0.409 0.015 0 0.418 0.03 0 0.427 0.045 0 0.4665 0.03 0 0.5075 0.015 0 0.515 0.03 0 0.5225 0.045 0 0.5635 0.03 0 0.606 0.015 0 0.612 0.03 0 0.618 0.045 0 0.6605 0.03 0 0.7045 0.015 0 0.709 0.03 0 0.7135 0.045 0 0.7575 0.03 0 0.803 0.015 0 0.806 0.03 0 0.809 0.045 0 0.8545 0.03 0 0.9015 0.015 0 0.903 0.03 0 0.9045 0.045 0 0.9515 0.03 0 
</DataArray>
</Points>
<Cells>
<DataArray Name="connectivity" format="ascii" type="Int64">
0 3 50 46 2 49 48 45 3 5 54 50 4 53 52 49 5 7 58 54 6 57 56 53 7 9 62 58 8 61 60 57 9 11 66 62 10 65 64 61 11 13 70 66 12 69 68 65 13 15 74 70 14 73 72 69 15 17 78 74 16 77 76 73 17 19 82 78 18 81 80 77 19 1 23 82 20 24 84 81 46 50 43 25 48 51 44 47 50 54 41 43 52 55 42 51 54 58 39 41 56 59 40 55 58 62 37 39 60 63 38 59 62 66 35 37 64 67 36 63 66 70 33 35 68 71 34 67 70 74 31 33 72 75 32 71 74 78 29 31 76 79 30 75 78 82 27 29 80 83 28 79 82 23 21 27 84 22 26 83 1 87 110 23 86 109 108 24 87 89 114 110 88 113 112 109 89 91 118 114 90 117 116 113 91 93 122 118 92 121 120 117 93 85 97 122 94 96 124 121 23 110 106 21 108 111 107 22 110 114 104 106 112 115 105 111 114 118 102 104 116 119 103 115 118 122 100 102 120 123 101 119 122 97 95 100 124 98 99 123 25 127 170 46 126 169 168 47 127 129 174 170 128 173 172 169 129 131 178 174 130 177 176 173 131 133 182 178 132 181 180 177 133 135 186 182 134 185 184 181 135 137 190 186 136 189 188 185 137 139 194 190 138 193 192 189 139 141 198 194 140 197 196 193 141 143 202 198 142 201 200 197 143 125 147 202 144 146 204 201 46 170 166 0 168 171 167 45 170 174 164 166 172 175 165 171 174 178 162 164 176 179 163 175 178 182 160 162 180 183 161 179 182 186 158 160 184 187 159 183 186 190 156 158 188 191 157 187 190 194 154 156 192 195 155 191 194 198 152 154 196 199 153 195 198 202 150 152 200 203 151 199 202 147 145 150 204 148 149 203 
</DataArray>
<DataArray Name="offsets" format="ascii" type="Int64">
8 16 24 32 40 48 56 64 72 80 88 96 104 112 120 128 136 144 152 160 168 176 184 192 200 208 216 224 232 240 248 256 264 272 280 288 296 304 312 320 328 336 344 352 360 368 376 384 392 400 
</DataArray>
<DataArray Name="types" format="ascii" type="Int8">
23 23 23 23 23 23 23 23 23 23 23 23 23 23 23 23 23 23 23 23 23 23 23 23 23 23 23 23 23 23 23 23 23 23 23 23 23 23 23 23 23 23 23 23 23 23 23 23 23 23 
</DataArray>
</Cells>
</Piece>
</UnstructuredGrid>
</VTKFile>
