<?xml version="1.0"?>
<VTKFile byte_order="LittleEndian" type="UnstructuredGrid" version="0.1">
<UnstructuredGrid>
<Piece NumberOfCells="50" NumberOfPoints="205">
<PointData>
<DataArray Name="Warping_X" format="ascii" type="Float64">
0 0 0 0 0 0 0 0 0 0 0 0 0 0 0 0 0 0 0 -0 0 -0 0 0 0 0 0 -0 0 0 0 0 0 0 0 0 0 0 0 0 0 -0 0 0 0 0 0 0 0 0 0 0 0 -0 0 0 0 0 0 0 0 0 0 0 0 0 0 0 0 0 0 0 0 0 0 0 0 0 0 0 0 0 0 0 0 0 0 0 0 0 0 0 0 0 0 0 0 0 0 0 0 0 0 0 0 0 0 0 0 0 0 0 0 0 0 0 0 0 -0 0 0 0 -0 0 0 0 0 0 0 0 0 0 0 0 0 0 0 0 0 0 0 0 0 0 0 0 0 0 0 0 0 0 0 0 0 0 0 0 0 0 0 0 0 0 0 0 0 0 0 0 0 0 0 0 0 0 0 0 0 0 0 0 0 0 0 0 0 0 0 0 0 0 0 0 0 0 0 0 0 0 0 0 0 0 0 
</DataArray>
<DataArray Name="Warping_Y" format="ascii" type="Float64">
0 0 0 0 0 0 0 0 0 0 0 0 0 0 0 0 0 0 0 0 0 0 0 0 0 -0 0 0 0 0 0 0 0 0 0 0 0 0 0 0 0 0 0 0 0 0 0 0 0 0 0 0 0 0 0 0 0 0 0 0 0 0 0 0 0 0 0 0 0 0 0 0 0 0 0 0 0 0 0 0 0 0 0 0 0 0 0 0 0 0 0 0 0 0 0 0 0 0 0 0 0 0 0 0 -0 0 0 0 0 0 0 0 0 -0 0 0 0 -0 0 0 0 0 0 0 0 0 0 -0 0 0 0 0 0 -0 0 0 0 0 0 0 0 0 0 0 0 0 0 0 0 0 0 0 0 0 0 0 0 0 0 0 0 0 0 0 0 0 -0 0 0 0 0 0 0 0 0 0 0 0 0 0 0 0 0 0 0 0 0 0 0 0 0 0 0 0 0 0 0 0 0 0 0 0 0 -0 0 
</DataArray>
<DataArray Name="Warping_Z" format="ascii" type="Float64">
0 0 0 0 0 0 0 0 0 0 0 0 0 0 0 0 0 0 0 0 0 0 0 0 0 0 0 0 0 0 0 0 0 0 0 0 0 0 0 0 0 0 0 0 0 0 0 0 0 0 0 0 0 0 0 0 0 0 0 0 0 0 0 0 0 0 0 0 0 0 0 0 0 0 0 0 0 0 0 0 0 0 0 0 0 0 0 0 0 0 0 0 0 0 0 0 0 0 0 0 0 0 0 0 0 0 0 0 0 0 0 0 0 0 0 0 0 0 0 0 0 0 0 0 0 0 0 0 0 0 0 0 0 0 0 0 0 0 0 0 0 0 0 0 0 0 0 0 0 0 0 0 0 0 0 0 0 0 0 0 0 0 0 0 0 0 0 0 0 0 0 0 0 0 0 0 0 0 0 0 0 0 0 0 0 0 0 0 0 0 0 0 0 0 0 0 0 0 0 0 0 0 0 0 0 
</DataArray>
</PointData>
<CellData>
<DataArray Name="MaterialId" format="ascii" type="Float64">
1 1 1 1 1 1 1 1 1 1 1 1 1 1 1 1 1 1 1 1 1 1 1 1 1 1 1 1 1 1 1 1 1 1 1 1 1 1 1 1 1 1 1 1 1 1 1 1 1 1 
</DataArray>
<DataArray Name="FiberAngle" format="ascii" type="Float64">
0 0 0 0 0 0 0 0 0 0 0 0 0 0 0 0 0 0 0 0 0 0 0 0 0 0 0 0 0 0 0 0 0 0 0 0 0 0 0 0 0 0 0 0 0 0 0 0 0 0 
</DataArray>
<DataArray Name="Strain_11" format="ascii" type="Float64">
0 0 0 0 0 0 0 0 0 0 0 0 0 0 0 0 0 0 0 0 0 0 0 0 0 0 0 0 0 0 0 0 0 0 0 0 0 0 0 0 0 0 0 0 0 0 0 0 0 0 
</DataArray>
<DataArray Name="Strain_22" format="ascii" type="Float64">
0 0 0 0 0 0 0 0 0 0 0 0 0 0 0 0 0 0 0 0 0 0 0 0 0 0 0 0 0 0 0 0 0 0 0 0 0 0 0 0 0 0 0 0 0 0 0 0 0 0 
</DataArray>
<DataArray Name="Strain_12" format="ascii" type="Float64">
0 0 0 0 0 0 0 0 0 0 0 0 0 0 0 0 0 0 0 0 0 0 0 0 0 0 0 0 0 0 0 0 0 0 0 0 0 0 0 0 0 0 0 0 0 0 0 0 0 0 
</DataArray>
<DataArray Name="Strain_13" format="ascii" type="Float64">
1 1 1 1 1 1 1 1 1 1 1 1 1 1 1 1 1 1 1 1 1 1 1 1 1 1 1 1 1 1 1 1 1 1 1 1 1 1 1 1 1 1 1 1 1 1 1 1 1 1 
</DataArray>
<DataArray Name="Strain_23" format="ascii" type="Float64">
-4.52518e-11 -5.26115e-11 -5.21186e-11 -4.46494e-11 -3.12985e-11 -1.3923e-11 5.80742e-12 2.66109e-11 4.71912e-11 6.52368e-11 -4.71765e-11 -4.50025e-11 -4.50708e-11 -4.03847e-11 -2.95545e-11 -1.39529e-11 4.78798e-12 2.50083e-11 4.51121e-11 6.3804e-11 2.96846e-11 9.65353e-12 -1.40515e-11 -3.86463e-11 -6.33645e-11 4.30129e-11 1.65077e-11 -1.14292e-11 -3.96637e-11 -6.68556e-11 3.23757e-11 7.58687e-13 -2.54056e-11 -4.81882e-11 -7.07947e-11 -9.35234e-11 -1.16787e-10 -1.40828e-10 -1.65625e-10 -1.92442e-10 -4.21975e-12 -1.28606e-11 -3.69606e-11 -5.89169e-11 -7.96396e-11 -9.94365e-11 -1.18982e-10 -1.38899e-10 -1.60186e-10 -1.84333e-10 
</DataArray>
<DataArray Name="Strain_33" format="ascii" type="Float64">
0 0 0 0 0 0 0 0 0 0 0 0 0 0 0 0 0 0 0 0 0 0 0 0 0 0 0 0 0 0 0 0 0 0 0 0 0 0 0 0 0 0 0 0 0 0 0 0 0 0 
</DataArray>
<DataArray Name="Stress_11" format="ascii" type="Float64">
0 0 0 0 0 0 0 0 0 0 0 0 0 0 0 0 0 0 0 0 0 0 0 0 0 0 0 0 0 0 0 0 0 0 0 0 0 0 0 0 0 0 0 0 0 0 0 0 0 0 
</DataArray>
<DataArray Name="Stress_22" format="ascii" type="Float64">
0 0 0 0 0 0 0 0 0 0 0 0 0 0 0 0 0 0 0 0 0 0 0 0 0 0 0 0 0 0 0 0 0 0 0 0 0 0 0 0 0 0 0 0 0 0 0 0 0 0 
</DataArray>
<DataArray Name="Stress_12" format="ascii" type="Float64">
0 0 0 0 0 0 0 0 0 0 0 0 0 0 0 0 0 0 0 0 0 0 0 0 0 0 0 0 0 0 0 0 0 0 0 0 0 0 0 0 0 0 0 0 0 0 0 0 0 0 
</DataArray>
<DataArray Name="Stress_13" format="ascii" type="Float64">
6.941e+10 6.941e+10 6.941e+10 6.941e+10 6.941e+10 6.941e+10 6.941e+10 6.941e+10 6.941e+10 6.941e+10 6.941e+10 6.941e+10 6.941e+10 6.941e+10 6.941e+10 6.941e+10 6.941e+10 6.941e+10 6.941e+10 6.941e+10 6.941e+10 6.941e+10 6.941e+10 6.941e+10 6.941e+10 6.941e+10 6.941e+10 6.941e+10 6.941e+10 6.941e+10 6.941e+10 6.941e+10 6.941e+10 6.941e+10 6.941e+10 6.941e+10 6.941e+10 6.941e+10 6.941e+10 6.941e+10 6.941e+10 6.941e+10 6.941e+10 6.941e+10 6.941e+10 6.941e+10 6.941e+10 6.941e+10 6.941e+10 6.941e+10 
</DataArray>
<DataArray Name="Stress_23" format="ascii" type="Float64">
-3.14093 -3.65177 -3.61755 -3.09911 -2.17243 -0.966396 0.403093 1.84706 3.27554 4.52809 -3.27452 -3.12362 -3.12836 -2.8031 -2.05137 -0.968469 0.332334 1.73582 3.13123 4.42863 2.06041 0.670051 -0.975317 -2.68244 -4.39813 2.98553 1.1458 -0.793301 -2.75306 -4.64045 2.2472 0.0526605 -1.7634 -3.34474 -4.91386 -6.49146 -8.10619 -9.77487 -11.496 -13.3574 -0.292893 -0.892657 -2.56544 -4.08942 -5.52778 -6.90189 -8.25851 -9.641 -11.1185 -12.7946 
</DataArray>
<DataArray Name="Stress_33" format="ascii" type="Float64">
0 0 0 0 0 0 0 0 0 0 0 0 0 0 0 0 0 0 0 0 0 0 0 0 0 0 0 0 0 0 0 0 0 0 0 0 0 0 0 0 0 0 0 0 0 0 0 0 0 0 
</DataArray>
</CellData>
<Points>
<DataArray NumberOfComponents="3" format="ascii" type="Float64">
0.06 0.06 0 0.06 0.94 0 0.06 0.104 0 0.06 0.148 0 0.06 0.192 0 0.06 0.236 0 0.06 0.28 0 0.06 0.324 0 0.06 0.368 0 0.06 0.412 0 0.06 0.456 0 0.06 0.5 0 0.06 0.544 0 0.06 0.588 0 0.06 0.632 0 0.06 0.676 0 0.06 0.72 0 0.06 0.764 0 0.06 0.808 0 0.06 0.852 0 0.06 0.896 0 0 1 0 0.015 0.985 0 0.03 0.97 0 0.045 0.955 0 0 0 0 0 0.95 0 0 0.9 0 0 0.85 0 0 0.8 0 0 0.75 0 0 0.7 0 0 0.65 0 0 0.6 0 0 0.55 0 0 0.5 0 0 0.45 0 0 0.4 0 0 0.35 0 0 0.3 0 0 0.25 0 0 0.2 0 0 0.15 0 0 0.1 0 0 0.05 0 0.045 0.045 0 0.03 0.03 0 0.015 0.015 0 0.03 0.077 0 0.045 0.136 0 0.03 0.124 0 0.015 0.112 0 0.03 0.171 0 0.045 0.227 0 0.03 0.218 0 0.015 0.209 0 0.03 0.265 0 0.045 0.318 0 0.03 0.312 0 0.015 0.306 0 0.03 0.359 0 0.045 0.409 0 0.03 0.406 0 0.015 0.403 0 0.03 0.453 0 0.045 0.5 0 0.03 0.5 0 0.015 0.5 0 0.03 0.547 0 0.045 0.591 0 0.03 0.594 0 0.015 0.597 0 0.03 0.641 0 0.045 0.682 0 0.03 0.688 0 0.015 0.694 0 0.03 0.735 0 0.045 0.773 0 0.03 0.782 0 0.015 0.791 0 0.03 0.829 0 0.045 0.864 0 0.03 0.876 0 0.015 0.888 0 0.03 0.923 0 0.5 0.94 0 0.104 0.94 0 0.148 0.94 0 0.192 0.94 0 0.236 0.94 0 0.28 0.94 0 0.324 0.94 0 0.368 0.94 0 0.412 0.94 0 0.456 0.94 0 0.5 1 0 0.5 0.955 0 0.5 0.97 0 0.5 0.985 0 0.45 1 0 0.4 1 0 0.35 1 0 0.3 1 0 0.25 1 0 0.2 1 0 0.15 1 0 0.1 1 0 0.05 1 0 0.077 0.97 0 0.136 0.955 0 0.124 0.97 0 0.112 0.985 0 0.171 0.97 0 0.227 0.955 0 0.218 0.97 0 0.209 0.985 0 0.265 0.97 0 0.318 0.955 0 0.312 0.97 0 0.306 0.985 0 0.359 0.97 0 0.409 0.955 0 0.406 0.97 0 0.403 0.985 0 0.453 0.97 0 1 0 0 0.05 0 0 0.1 0 0 0.15 0 0 0.2 0 0 0.25 0 0 0.3 0 0 0.35 0 0 0.4 0 0 0.45 0 0 0.5 0 0 0.55 0 0 0.6 0 0 0.65 0 0 0.7 0 0 0.75 0 0 0.8 0 0 0.85 0 0 0.9 0 0 0.95 0 0 1 0.06 0 1 0.015 0 1 0.03 0 1 0.045 0 0.953 0.06 0 0.906 0.06 0 0.859 0.06 0 0.812 0.06 0 0.765 0.06 0 0.718 0.06 0 0.671 0.06 0 0.624 0.06 0 0.577 0.06 0 0.53 0.06 0 0.483 0.06 0 0.436 0.06 0 0.389 0.06 0 0.342 0.06 0 0.295 0.06 0 0.248 0.06 0 0.201 0.06 0 0.154 0.06 0 0.107 0.06 0 0.0785 0.03 0 0.1135 0.015 0 0.127 0.03 0 0.1405 0.045 0 0.1755 0.03 0 0.212 0.015 0 0.224 0.03 0 0.236 0.045 0 0.2725 0.03 0 0.3105 0.015 0 0.321 0.03 0 0.3315 0.045 0 0.3695 0.03 0 0.409 0.015 0 0.418 0.03 0 0.427 0.045 0 0.4665 0.03 0 0.5075 0.015 0 0.515 0.03 0 0.5225 0.045 0 0.5635 0.03 0 0.606 0.015 0 0.612 0.03 0 0.618 0.045 0 0.6605 0.03 0 0.7045 0.015 0 0.709 0.03 0 0.7135 0.045 0 0.7575 0.03 0 0.803 0.015 0 0.806 0.03 0 0.809 0.045 0 0.8545 0.03 0 0.9015 0.015 0 0.903 0.03 0 0.9045 0.045 0 0.9515 0.03 0 
</DataArray>
</Points>
<Cells>
<DataArray Name="connectivity" format="ascii" type="Int64">
0 3 50 46 2 49 48 45 3 5 54 50 4 53 52 49 5 7 58 54 6 57 56 53 7 9 62 58 8 61 60 57 9 11 66 62 10 65 64 61 11 13 70 66 12 69 68 65 13 15 74 70 14 73 72 69 15 17 78 74 16 77 76 73 17 19 82 78 18 81 80 77 19 1 23 82 20 24 84 81 46 50 43 25 48 51 44 47 50 54 41 43 52 55 42 51 54 58 39 41 56 59 40 55 58 62 37 39 60 63 38 59 62 66 35 37 64 67 36 63 66 70 33 35 68 71 34 67 70 74 31 33 72 75 32 71 74 78 29 31 76 79 30 75 78 82 27 29 80 83 28 79 82 23 21 27 84 22 26 83 1 87 110 23 86 109 108 24 87 89 114 110 88 113 112 109 89 91 118 114 90 117 116 113 91 93 122 118 92 121 120 117 93 85 97 122 94 96 124 121 23 110 106 21 108 111 107 22 110 114 104 106 112 115 105 111 114 118 102 104 116 119 103 115 118 122 100 102 120 123 101 119 122 97 95 100 124 98 99 123 25 127 170 46 126 169 168 47 127 129 174 170 128 173 172 169 129 131 178 174 130 177 176 173 131 133 182 178 132 181 180 177 133 135 186 182 134 185 184 181 135 137 190 186 136 189 188 185 137 139 194 190 138 193 192 189 139 141 198 194 140 197 196 193 141 143 202 198 142 201 200 197 143 125 147 202 144 146 204 201 46 170 166 0 168 171 167 45 170 174 164 166 172 175 165 171 174 178 162 164 176 179 163 175 178 182 160 162 180 183 161 179 182 186 158 160 184 187 159 183 186 190 156 158 188 191 157 187 190 194 154 156 192 195 155 191 194 198 152 154 196 199 153 195 198 202 150 152 200 203 151 199 202 147 145 150 204 148 149 203 
</DataArray>
<DataArray Name="offsets" format="ascii" type="Int64">
8 16 24 32 40 48 56 64 72 80 88 96 104 112 120 128 136 144 152 160 168 176 184 192 200 208 216 224 232 240 248 256 264 272 280 288 296 304 312 320 328 336 344 352 360 368 376 384 392 400 
</DataArray>
<DataArray Name="types" format="ascii" type="Int8">
23 23 23 23 23 23 23 23 23 23 23 23 23 23 23 23 23 23 23 23 23 23 23 23 23 23 23 23 23 23 23 23 23 23 23 23 23 23 23 23 23 23 23 23 23 23 23 23 23 23 
</DataArray>
</Cells>
</Piece>
</UnstructuredGrid>
</VTKFile>
