<?xml version="1.0"?>
<VTKFile byte_order="LittleEndian" type="UnstructuredGrid" version="0.1">
<UnstructuredGrid>
<Piece NumberOfCells="50" NumberOfPoints="205">
<PointData>
<DataArray Name="Warping_X" format="ascii" type="Float64">
-7.09882e-12 4.26993e-12 -3.10697e-12 -4.30961e-12 -4.44633e-13 -1.45482e-12 2.01207e-12 7.55013e-13 3.93498e-12 2.54131e-12 5.29734e-12 3.79079e-12 6.07965e-12 4.54341e-12 6.30228e-12 4.83465e-12 6.06348e-12 4.7946e-12 5.53791e-12 4.48392e-12 4.93965e-12 5.09665e-12 4.66339e-12 4.39404e-12 4.29519e-12 -4.57468e-12 4.09381e-12 5.28767e-12 4.45456e-12 6.05486e-12 4.54348e-12 6.50001e-12 4.37144e-12 6.61572e-12 3.78207e-12 6.18851e-12 2.73241e-12 5.14211e-12 1.21439e-12 3.45118e-12 -7.69564e-13 1.21509e-12 -3.22408e-12 -1.54741e-12 -6.01022e-12 -6.77644e-12 -6.30899e-12 -5.51224e-12 -4.38022e-12 -3.84685e-12 -3.27187e-12 -2.46497e-12 -1.57905e-12 -1.11296e-12 -5.79393e-13 2.23562e-13 9.17379e-13 1.12878e-12 1.66997e-12 2.47754e-12 2.85456e-12 2.89778e-12 3.41872e-12 4.19917e-12 4.27734e-12 4.12218e-12 4.602e-12 5.3212e-12 5.16992e-12 4.81778e-12 5.22893e-12 5.85531e-12 5.55196e-12 5.0385e-12 5.36468e-12 5.87509e-12 5.4981e-12 4.9201e-12 5.15705e-12 5.551e-12 5.14798e-12 4.5609e-12 4.72067e-12 4.98202e-12 4.66966e-12 2.27791e-11 4.13785e-12 4.3174e-12 4.53681e-12 6.34443e-12 7.24084e-12 1.04411e-11 1.24308e-11 1.67215e-11 1.95802e-11 2.38898e-11 2.46081e-11 2.58485e-11 2.52076e-11 2.05733e-11 1.63543e-11 1.3755e-11 9.90004e-12 8.45349e-12 5.83466e-12 5.15113e-12 4.21251e-12 4.10688e-12 4.04646e-12 4.16826e-12 4.02127e-12 4.12085e-12 4.67825e-12 6.07773e-12 5.81207e-12 5.80737e-12 7.5543e-12 1.0172e-11 9.90841e-12 9.8889e-12 1.28539e-11 1.65182e-11 1.639e-11 1.63195e-11 2.05407e-11 2.43881e-11 -1.13029e-11 -1.24801e-11 -1.7297e-11 -1.79237e-11 -2.05403e-11 -2.07523e-11 -2.15574e-11 -2.12972e-11 -2.03057e-11 -1.94316e-11 -1.67864e-11 -1.51198e-11 -1.09798e-11 -8.29793e-12 -2.8834e-12 1.00849e-12 7.44241e-12 1.27709e-11 1.92363e-11 2.38832e-11 2.68083e-11 2.82468e-11 2.65542e-11 1.85319e-11 1.30266e-11 6.06233e-12 1.37248e-12 -4.6392e-12 -7.89527e-12 -1.27713e-11 -1.47694e-11 -1.82215e-11 -1.91623e-11 -2.10335e-11 -2.11005e-11 -2.12578e-11 -2.06704e-11 -1.90476e-11 -1.79175e-11 -1.45313e-11 -1.34287e-11 -8.39943e-12 -9.84974e-12 -1.28623e-11 -1.33247e-11 -1.34076e-11 -1.58877e-11 -1.81053e-11 -1.8306e-11 -1.81122e-11 -1.98331e-11 -2.09291e-11 -2.11044e-11 -2.08721e-11 -2.15297e-11 -2.14477e-11 -2.15865e-11 -2.13361e-11 -2.08622e-11 -1.95675e-11 -1.96816e-11 -1.9419e-11 -1.77616e-11 -1.52346e-11 -1.53229e-11 -1.50486e-11 -1.21744e-11 -8.4078e-12 -8.48476e-12 -8.19532e-12 -4.09322e-12 9.4783e-13 9.03002e-13 1.13513e-12 6.59834e-12 1.27268e-11 1.28233e-11 1.28677e-11 1.97881e-11 
</DataArray>
<DataArray Name="Warping_Y" format="ascii" type="Float64">
1.9865e-11 -2.80097e-11 1.88513e-11 1.34608e-11 1.20249e-11 7.01866e-12 4.88448e-12 5.24821e-13 -1.82445e-12 -5.43892e-12 -8.02243e-12 -1.08789e-11 -1.35627e-11 -1.57113e-11 -1.83793e-11 -1.9903e-11 -2.2381e-11 -2.34169e-11 -2.55144e-11 -2.6095e-11 -2.76711e-11 -2.86317e-11 -2.83463e-11 -2.81516e-11 -2.80476e-11 2.27772e-11 -2.69815e-11 -2.66267e-11 -2.43971e-11 -2.38266e-11 -2.13514e-11 -2.04024e-11 -1.77307e-11 -1.62162e-11 -1.36053e-11 -1.13513e-11 -8.98237e-12 -5.85872e-12 -3.83325e-12 2.32845e-13 1.91284e-12 6.84933e-12 8.26708e-12 1.42871e-11 1.57942e-11 2.02673e-11 2.08165e-11 2.16716e-11 1.74629e-11 1.35119e-11 1.36425e-11 1.401e-11 1.03235e-11 6.86559e-12 6.70746e-12 6.79547e-12 3.52225e-12 3.83693e-13 2.07861e-13 2.25498e-13 -2.79077e-12 -5.59862e-12 -5.77507e-12 -5.81596e-12 -8.54474e-12 -1.10387e-11 -1.12022e-11 -1.12815e-11 -1.36992e-11 -1.58664e-11 -1.60134e-11 -1.61231e-11 -1.82144e-11 -2.00337e-11 -2.01485e-11 -2.02849e-11 -2.20336e-11 -2.34943e-11 -2.3567e-11 -2.3706e-11 -2.51013e-11 -2.61457e-11 -2.62036e-11 -2.64325e-11 -2.73777e-11 -2.85699e-11 -2.84601e-11 -2.8511e-11 -2.78666e-11 -2.85423e-11 -2.67607e-11 -2.83085e-11 -2.54624e-11 -2.80792e-11 -2.40274e-11 -2.3563e-11 -2.72152e-11 -2.62676e-11 -2.513e-11 -2.83685e-11 -2.46547e-11 -2.83623e-11 -2.60903e-11 -2.84893e-11 -2.74264e-11 -2.85487e-11 -2.83184e-11 -2.82162e-11 -2.8457e-11 -2.84132e-11 -2.83537e-11 -2.83154e-11 -2.82897e-11 -2.82695e-11 -2.80042e-11 -2.76987e-11 -2.76637e-11 -2.78274e-11 -2.73348e-11 -2.67265e-11 -2.68887e-11 -2.73941e-11 -2.66404e-11 -2.56772e-11 -2.61991e-11 1.49384e-11 2.0714e-11 2.42708e-11 2.29482e-11 2.54288e-11 2.42616e-11 2.54889e-11 2.4832e-11 2.47851e-11 2.47785e-11 2.34196e-11 2.43107e-11 2.16455e-11 2.36296e-11 1.96832e-11 2.29496e-11 1.78053e-11 2.25e-11 1.61528e-11 2.25394e-11 2.27511e-11 1.72511e-11 1.895e-11 2.0524e-11 1.54757e-11 2.22068e-11 1.69833e-11 2.25596e-11 1.86744e-11 2.3249e-11 2.05578e-11 2.40577e-11 2.23895e-11 2.47412e-11 2.39371e-11 2.51032e-11 2.49706e-11 2.49127e-11 2.52937e-11 2.40505e-11 2.47385e-11 2.21667e-11 2.34555e-11 2.23091e-11 2.36099e-11 2.30184e-11 2.25465e-11 2.40808e-11 2.48492e-11 2.44346e-11 2.41672e-11 2.50442e-11 2.51659e-11 2.49659e-11 2.48801e-11 2.5134e-11 2.47149e-11 2.47537e-11 2.48765e-11 2.45578e-11 2.36457e-11 2.3956e-11 2.43099e-11 2.35126e-11 2.2188e-11 2.27899e-11 2.33951e-11 2.22193e-11 2.05577e-11 2.1473e-11 2.23473e-11 2.09039e-11 1.90298e-11 2.0249e-11 2.13868e-11 1.97989e-11 1.7742e-11 1.93258e-11 2.07743e-11 1.90745e-11 
</DataArray>
<DataArray Name="Warping_Z" format="ascii" type="Float64">
0 0 0 0 0 0 0 0 0 0 0 0 0 0 0 0 0 0 0 0 0 0 0 0 0 0 0 0 0 0 0 0 0 0 0 0 0 0 0 0 0 0 0 0 0 0 0 0 0 0 0 0 0 0 0 0 0 0 0 0 0 0 0 0 0 0 0 0 0 0 0 0 0 0 0 0 0 0 0 0 0 0 0 0 0 0 0 0 0 0 0 0 0 0 0 0 0 0 0 0 0 0 0 0 0 0 0 0 0 0 0 0 0 0 0 0 0 0 0 0 0 0 0 0 0 0 0 0 0 0 0 0 0 0 0 0 0 0 0 0 0 0 0 0 0 0 0 0 0 0 0 0 0 0 0 0 0 0 0 0 0 0 0 0 0 0 0 0 0 0 0 0 0 0 0 0 0 0 0 0 0 0 0 0 0 0 0 0 0 0 0 0 0 0 0 0 0 0 0 0 0 0 0 0 0 
</DataArray>
</PointData>
<CellData>
<DataArray Name="MaterialId" format="ascii" type="Float64">
1 1 1 1 1 1 1 1 1 1 1 1 1 1 1 1 1 1 1 1 1 1 1 1 1 1 1 1 1 1 1 1 1 1 1 1 1 1 1 1 1 1 1 1 1 1 1 1 1 1 
</DataArray>
<DataArray Name="FiberAngle" format="ascii" type="Float64">
0 0 0 0 0 0 0 0 0 0 0 0 0 0 0 0 0 0 0 0 0 0 0 0 0 0 0 0 0 0 0 0 0 0 0 0 0 0 0 0 0 0 0 0 0 0 0 0 0 0 
</DataArray>
<DataArray Name="Strain_11" format="ascii" type="Float64">
-7.14156e-11 -5.88439e-11 -4.88068e-11 -4.1846e-11 -3.53453e-11 -2.95597e-11 -2.42832e-11 -1.94966e-11 -1.57608e-11 -1.16278e-11 -8.26069e-11 -7.4236e-11 -6.78499e-11 -5.99969e-11 -5.26546e-11 -4.5711e-11 -3.92892e-11 -3.34914e-11 -2.72198e-11 -2.21512e-11 -1.39482e-12 2.09832e-11 4.49922e-11 6.97383e-11 8.89e-11 -5.59329e-12 1.73869e-11 4.20776e-11 6.62945e-11 9.16299e-11 -7.46196e-11 -5.32286e-11 -2.86681e-11 -5.26531e-12 1.90889e-11 4.39885e-11 6.93077e-11 9.4981e-11 1.19583e-10 1.4296e-10 -6.94364e-11 -4.92623e-11 -2.88996e-11 -4.85921e-12 2.00746e-11 4.57629e-11 7.17626e-11 9.77011e-11 1.22854e-10 1.43314e-10 
</DataArray>
<DataArray Name="Strain_22" format="ascii" type="Float64">
-7.42353e-11 -7.3036e-11 -7.12296e-11 -6.57397e-11 -5.97806e-11 -5.30517e-11 -4.57945e-11 -3.80295e-11 -2.91357e-11 -2.09003e-11 -7.89855e-11 -7.43769e-11 -6.77316e-11 -6.22831e-11 -5.63454e-11 -4.99137e-11 -4.2905e-11 -3.5269e-11 -2.81088e-11 -1.973e-11 -3.7183e-12 1.52083e-11 3.25288e-11 4.89735e-11 7.25873e-11 -7.7388e-12 1.30827e-11 3.25322e-11 5.2364e-11 7.28791e-11 -7.18658e-11 -4.84489e-11 -2.84955e-11 -7.08914e-12 1.33248e-11 3.3263e-11 5.28057e-11 7.20663e-11 9.1997e-11 1.15745e-10 -6.08839e-11 -3.63483e-11 -1.39149e-11 5.46899e-12 2.39543e-11 4.17471e-11 5.92224e-11 7.68304e-11 9.48158e-11 1.20093e-10 
</DataArray>
<DataArray Name="Strain_12" format="ascii" type="Float64">
5.27234e-11 2.44566e-11 1.48418e-11 6.9507e-12 2.02246e-12 -2.20833e-12 -5.81643e-12 -8.73458e-12 -1.05722e-11 -1.19507e-11 4.68819e-11 1.12328e-11 3.45563e-12 1.6844e-12 2.61415e-12 3.64325e-12 3.45383e-12 1.76393e-12 -2.0677e-12 -7.83391e-12 -2.22597e-12 1.15531e-11 1.69047e-11 1.15788e-11 -2.116e-11 -6.72932e-12 2.76555e-12 1.08876e-12 6.70497e-13 1.37154e-11 4.21289e-11 1.08473e-11 1.14311e-12 -2.0807e-12 -2.80394e-12 -2.08776e-12 -9.88784e-13 1.06948e-12 -2.8758e-12 -3.05263e-11 4.14872e-11 1.36315e-11 2.9543e-12 -5.94301e-12 -1.12623e-11 -1.48421e-11 -1.61898e-11 -1.62835e-11 -6.97442e-12 3.20883e-11 
</DataArray>
<DataArray Name="Strain_13" format="ascii" type="Float64">
0 0 0 0 0 0 0 0 0 0 0 0 0 0 0 0 0 0 0 0 0 0 0 0 0 0 0 0 0 0 0 0 0 0 0 0 0 0 0 0 0 0 0 0 0 0 0 0 0 0 
</DataArray>
<DataArray Name="Strain_23" format="ascii" type="Float64">
0 0 0 0 0 0 0 0 0 0 0 0 0 0 0 0 0 0 0 0 0 0 0 0 0 0 0 0 0 0 0 0 0 0 0 0 0 0 0 0 0 0 0 0 0 0 0 0 0 0 
</DataArray>
<DataArray Name="Strain_33" format="ascii" type="Float64">
-0.045 -0.045 -0.045 -0.045 -0.045 -0.045 -0.045 -0.045 -0.045 -0.045 -0.015 -0.015 -0.015 -0.015 -0.015 -0.015 -0.015 -0.015 -0.015 -0.015 -0.0905 -0.1815 -0.2725 -0.3635 -0.4545 -0.0635 -0.1605 -0.2575 -0.3545 -0.4515 -0.06425 -0.16275 -0.26125 -0.35975 -0.45825 -0.55675 -0.65525 -0.75375 -0.85225 -0.95075 -0.09275 -0.18825 -0.28375 -0.37925 -0.47475 -0.57025 -0.66575 -0.76125 -0.85675 -0.95225 
</DataArray>
<DataArray Name="Stress_11" format="ascii" type="Float64">
-1.5305e+11 -1.5305e+11 -1.5305e+11 -1.5305e+11 -1.5305e+11 -1.5305e+11 -1.5305e+11 -1.5305e+11 -1.5305e+11 -1.5305e+11 -5.10166e+10 -5.10166e+10 -5.10166e+10 -5.10166e+10 -5.10166e+10 -5.10166e+10 -5.10166e+10 -5.10166e+10 -5.10166e+10 -5.10166e+10 -3.078e+11 -6.17301e+11 -9.26802e+11 -1.2363e+12 -1.5458e+12 -2.1597e+11 -5.45878e+11 -8.75786e+11 -1.20569e+12 -1.5356e+12 -2.18521e+11 -5.53531e+11 -8.8854e+11 -1.22355e+12 -1.55856e+12 -1.89357e+12 -2.22858e+12 -2.56359e+12 -2.8986e+12 -3.23361e+12 -3.15453e+11 -6.40259e+11 -9.65065e+11 -1.28987e+12 -1.61468e+12 -1.93948e+12 -2.26429e+12 -2.58909e+12 -2.9139e+12 -3.23871e+12 
</DataArray>
<DataArray Name="Stress_22" format="ascii" type="Float64">
-1.5305e+11 -1.5305e+11 -1.5305e+11 -1.5305e+11 -1.5305e+11 -1.5305e+11 -1.5305e+11 -1.5305e+11 -1.5305e+11 -1.5305e+11 -5.10166e+10 -5.10166e+10 -5.10166e+10 -5.10166e+10 -5.10166e+10 -5.10166e+10 -5.10166e+10 -5.10166e+10 -5.10166e+10 -5.10166e+10 -3.078e+11 -6.17301e+11 -9.26802e+11 -1.2363e+12 -1.5458e+12 -2.1597e+11 -5.45878e+11 -8.75786e+11 -1.20569e+12 -1.5356e+12 -2.18521e+11 -5.53531e+11 -8.8854e+11 -1.22355e+12 -1.55856e+12 -1.89357e+12 -2.22858e+12 -2.56359e+12 -2.8986e+12 -3.23361e+12 -3.15453e+11 -6.40259e+11 -9.65065e+11 -1.28987e+12 -1.61468e+12 -1.93948e+12 -2.26429e+12 -2.58909e+12 -2.9139e+12 -3.23871e+12 
</DataArray>
<DataArray Name="Stress_12" format="ascii" type="Float64">
3.65953 1.69753 1.03017 0.482448 0.140379 -0.15328 -0.403718 -0.606267 -0.73382 -0.829496 3.25407 0.779671 0.239855 0.116915 0.181448 0.252878 0.239731 0.122434 -0.143519 -0.543752 -0.154504 0.801899 1.17336 0.803686 -1.46872 -0.467082 0.191957 0.075571 0.0465392 0.951983 2.92417 0.752914 0.0793434 -0.144421 -0.194622 -0.144911 -0.0686315 0.0742324 -0.199609 -2.11883 2.87963 0.946163 0.205058 -0.412504 -0.781718 -1.03019 -1.12373 -1.13024 -0.484095 2.22725 
</DataArray>
<DataArray Name="Stress_13" format="ascii" type="Float64">
0 0 0 0 0 0 0 0 0 0 0 0 0 0 0 0 0 0 0 0 0 0 0 0 0 0 0 0 0 0 0 0 0 0 0 0 0 0 0 0 0 0 0 0 0 0 0 0 0 0 
</DataArray>
<DataArray Name="Stress_23" format="ascii" type="Float64">
0 0 0 0 0 0 0 0 0 0 0 0 0 0 0 0 0 0 0 0 0 0 0 0 0 0 0 0 0 0 0 0 0 0 0 0 0 0 0 0 0 0 0 0 0 0 0 0 0 0 
</DataArray>
<DataArray Name="Stress_33" format="ascii" type="Float64">
-1.59297e+11 -1.59297e+11 -1.59297e+11 -1.59297e+11 -1.59297e+11 -1.59297e+11 -1.59297e+11 -1.59297e+11 -1.59297e+11 -1.59297e+11 -5.3099e+10 -5.3099e+10 -5.3099e+10 -5.3099e+10 -5.3099e+10 -5.3099e+10 -5.3099e+10 -5.3099e+10 -5.3099e+10 -5.3099e+10 -3.20364e+11 -6.42497e+11 -9.64631e+11 -1.28676e+12 -1.6089e+12 -2.24786e+11 -5.68159e+11 -9.11532e+11 -1.25491e+12 -1.59828e+12 -2.27441e+11 -5.76124e+11 -9.24807e+11 -1.27349e+12 -1.62217e+12 -1.97086e+12 -2.31954e+12 -2.66822e+12 -3.01691e+12 -3.36559e+12 -3.28329e+11 -6.66392e+11 -1.00446e+12 -1.34252e+12 -1.68058e+12 -2.01865e+12 -2.35671e+12 -2.69477e+12 -3.03284e+12 -3.3709e+12 
</DataArray>
</CellData>
<Points>
<DataArray NumberOfComponents="3" format="ascii" type="Float64">
0.06 0.06 0 0.06 0.94 0 0.06 0.104 0 0.06 0.148 0 0.06 0.192 0 0.06 0.236 0 0.06 0.28 0 0.06 0.324 0 0.06 0.368 0 0.06 0.412 0 0.06 0.456 0 0.06 0.5 0 0.06 0.544 0 0.06 0.588 0 0.06 0.632 0 0.06 0.676 0 0.06 0.72 0 0.06 0.764 0 0.06 0.808 0 0.06 0.852 0 0.06 0.896 0 0 1 0 0.015 0.985 0 0.03 0.97 0 0.045 0.955 0 0 0 0 0 0.95 0 0 0.9 0 0 0.85 0 0 0.8 0 0 0.75 0 0 0.7 0 0 0.65 0 0 0.6 0 0 0.55 0 0 0.5 0 0 0.45 0 0 0.4 0 0 0.35 0 0 0.3 0 0 0.25 0 0 0.2 0 0 0.15 0 0 0.1 0 0 0.05 0 0.045 0.045 0 0.03 0.03 0 0.015 0.015 0 0.03 0.077 0 0.045 0.136 0 0.03 0.124 0 0.015 0.112 0 0.03 0.171 0 0.045 0.227 0 0.03 0.218 0 0.015 0.209 0 0.03 0.265 0 0.045 0.318 0 0.03 0.312 0 0.015 0.306 0 0.03 0.359 0 0.045 0.409 0 0.03 0.406 0 0.015 0.403 0 0.03 0.453 0 0.045 0.5 0 0.03 0.5 0 0.015 0.5 0 0.03 0.547 0 0.045 0.591 0 0.03 0.594 0 0.015 0.597 0 0.03 0.641 0 0.045 0.682 0 0.03 0.688 0 0.015 0.694 0 0.03 0.735 0 0.045 0.773 0 0.03 0.782 0 0.015 0.791 0 0.03 0.829 0 0.045 0.864 0 0.03 0.876 0 0.015 0.888 0 0.03 0.923 0 0.5 0.94 0 0.104 0.94 0 0.148 0.94 0 0.192 0.94 0 0.236 0.94 0 0.28 0.94 0 0.324 0.94 0 0.368 0.94 0 0.412 0.94 0 0.456 0.94 0 0.5 1 0 0.5 0.955 0 0.5 0.97 0 0.5 0.985 0 0.45 1 0 0.4 1 0 0.35 1 0 0.3 1 0 0.25 1 0 0.2 1 0 0.15 1 0 0.1 1 0 0.05 1 0 0.077 0.97 0 0.136 0.955 0 0.124 0.97 0 0.112 0.985 0 0.171 0.97 0 0.227 0.955 0 0.218 0.97 0 0.209 0.985 0 0.265 0.97 0 0.318 0.955 0 0.312 0.97 0 0.306 0.985 0 0.359 0.97 0 0.409 0.955 0 0.406 0.97 0 0.403 0.985 0 0.453 0.97 0 1 0 0 0.05 0 0 0.1 0 0 0.15 0 0 0.2 0 0 0.25 0 0 0.3 0 0 0.35 0 0 0.4 0 0 0.45 0 0 0.5 0 0 0.55 0 0 0.6 0 0 0.65 0 0 0.7 0 0 0.75 0 0 0.8 0 0 0.85 0 0 0.9 0 0 0.95 0 0 1 0.06 0 1 0.015 0 1 0.03 0 1 0.045 0 0.953 0.06 0 0.906 0.06 0 0.859 0.06 0 0.812 0.06 0 0.765 0.06 0 0.718 0.06 0 0.671 0.06 0 0.624 0.06 0 0.577 0.06 0 0.53 0.06 0 0.483 0.06 0 0.436 0.06 0 0.389 0.06 0 0.342 0.06 0 0.295 0.06 0 0.248 0.06 0 0.201 0.06 0 0.154 0.06 0 0.107 0.06 0 0.0785 0.03 0 0.1135 0.015 0 0.127 0.03 0 0.1405 0.045 0 0.1755 0.03 0 0.212 0.015 0 0.224 0.03 0 0.236 0.045 0 0.2725 0.03 0 0.3105 0.015 0 0.321 0.03 0 0.3315 0.045 0 0.3695 0.03 0 0.409 0.015 0 0.418 0.03 0 0.427 0.045 0 0.4665 0.03 0 0.5075 0.015 0 0.515 0.03 0 0.5225 0.045 0 0.5635 0.03 0 0.606 0.015 0 0.612 0.03 0 0.618 0.045 0 0.6605 0.03 0 0.7045 0.015 0 0.709 0.03 0 0.7135 0.045 0 0.7575 0.03 0 0.803 0.015 0 0.806 0.03 0 0.809 0.045 0 0.8545 0.03 0 0.9015 0.015 0 0.903 0.03 0 0.9045 0.045 0 0.9515 0.03 0 
</DataArray>
</Points>
<Cells>
<DataArray Name="connectivity" format="ascii" type="Int64">
0 3 50 46 2 49 48 45 3 5 54 50 4 53 52 49 5 7 58 54 6 57 56 53 7 9 62 58 8 61 60 57 9 11 66 62 10 65 64 61 11 13 70 66 12 69 68 65 13 15 74 70 14 73 72 69 15 17 78 74 16 77 76 73 17 19 82 78 18 81 80 77 19 1 23 82 20 24 84 81 46 50 43 25 48 51 44 47 50 54 41 43 52 55 42 51 54 58 39 41 56 59 40 55 58 62 37 39 60 63 38 59 62 66 35 37 64 67 36 63 66 70 33 35 68 71 34 67 70 74 31 33 72 75 32 71 74 78 29 31 76 79 30 75 78 82 27 29 80 83 28 79 82 23 21 27 84 22 26 83 1 87 110 23 86 109 108 24 87 89 114 110 88 113 112 109 89 91 118 114 90 117 116 113 91 93 122 118 92 121 120 117 93 85 97 122 94 96 124 121 23 110 106 21 108 111 107 22 110 114 104 106 112 115 105 111 114 118 102 104 116 119 103 115 118 122 100 102 120 123 101 119 122 97 95 100 124 98 99 123 25 127 170 46 126 169 168 47 127 129 174 170 128 173 172 169 129 131 178 174 130 177 176 173 131 133 182 178 132 181 180 177 133 135 186 182 134 185 184 181 135 137 190 186 136 189 188 185 137 139 194 190 138 193 192 189 139 141 198 194 140 197 196 193 141 143 202 198 142 201 200 197 143 125 147 202 144 146 204 201 46 170 166 0 168 171 167 45 170 174 164 166 172 175 165 171 174 178 162 164 176 179 163 175 178 182 160 162 180 183 161 179 182 186 158 160 184 187 159 183 186 190 156 158 188 191 157 187 190 194 154 156 192 195 155 191 194 198 152 154 196 199 153 195 198 202 150 152 200 203 151 199 202 147 145 150 204 148 149 203 
</DataArray>
<DataArray Name="offsets" format="ascii" type="Int64">
8 16 24 32 40 48 56 64 72 80 88 96 104 112 120 128 136 144 152 160 168 176 184 192 200 208 216 224 232 240 248 256 264 272 280 288 296 304 312 320 328 336 344 352 360 368 376 384 392 400 
</DataArray>
<DataArray Name="types" format="ascii" type="Int8">
23 23 23 23 23 23 23 23 23 23 23 23 23 23 23 23 23 23 23 23 23 23 23 23 23 23 23 23 23 23 23 23 23 23 23 23 23 23 23 23 23 23 23 23 23 23 23 23 23 23 
</DataArray>
</Cells>
</Piece>
</UnstructuredGrid>
</VTKFile>
