<?xml version="1.0"?>
<VTKFile byte_order="LittleEndian" type="UnstructuredGrid" version="0.1">
<UnstructuredGrid>
<Piece NumberOfCells="50" NumberOfPoints="205">
<PointData>
<DataArray Name="Warping_X" format="ascii" type="Float64">
-6.03371e-12 8.6806e-14 -8.51942e-12 -6.68924e-12 -8.66889e-12 -6.96414e-12 -8.01217e-12 -6.14535e-12 -6.38049e-12 -4.6496e-12 -4.05895e-12 -2.68575e-12 -1.5253e-12 -7.72537e-13 6.93362e-13 6.07845e-13 2.16747e-12 1.26898e-12 2.67642e-12 9.13021e-13 2.37962e-12 1.83195e-12 1.19758e-12 6.63008e-13 3.37836e-13 -8.20454e-12 4.21427e-13 2.63284e-12 1.05318e-12 2.66705e-12 8.70327e-13 1.65074e-12 -1.16757e-13 -2.74814e-13 -1.70034e-12 -2.8586e-12 -3.5292e-12 -5.49963e-12 -5.2028e-12 -7.5548e-12 -6.33029e-12 -8.73659e-12 -6.66594e-12 -8.77504e-12 -6.1228e-12 -6.27389e-12 -6.62271e-12 -7.29502e-12 -7.46866e-12 -7.07339e-12 -7.52727e-12 -8.12776e-12 -7.82154e-12 -7.19768e-12 -7.55218e-12 -8.08052e-12 -7.34215e-12 -6.346e-12 -6.62864e-12 -7.04809e-12 -5.92362e-12 -4.74727e-12 -4.91084e-12 -5.17088e-12 -3.88572e-12 -2.6738e-12 -2.69706e-12 -2.76086e-12 -1.65391e-12 -6.51347e-13 -5.35482e-13 -4.0491e-13 2.8828e-13 8.25964e-13 1.05652e-12 1.34352e-12 1.55691e-12 1.52211e-12 1.82457e-12 2.21971e-12 1.90043e-12 1.29149e-12 1.67999e-12 2.15401e-12 1.42986e-12 -3.1246e-11 -5.14575e-13 -4.69023e-12 -5.74593e-12 -1.04881e-11 -1.24503e-11 -1.74195e-11 -2.01466e-11 -2.51069e-11 -2.81999e-11 -3.27203e-11 -3.317e-11 -3.45684e-11 -3.39777e-11 -2.95553e-11 -2.51392e-11 -2.2244e-11 -1.71921e-11 -1.52163e-11 -1.01782e-11 -8.81592e-12 -3.89348e-12 -2.7938e-12 -1.56853e-12 -4.50201e-12 -4.26688e-12 -4.05341e-12 -7.08539e-12 -1.03908e-11 -1.02911e-11 -1.02129e-11 -1.35998e-11 -1.73377e-11 -1.72805e-11 -1.72287e-11 -2.11108e-11 -2.51117e-11 -2.51952e-11 -2.51323e-11 -2.94892e-11 1.85607e-11 -3.00039e-12 -2.05485e-12 2.17154e-12 2.8431e-12 6.30525e-12 6.9186e-12 9.81414e-12 1.0404e-11 1.27299e-11 1.32854e-11 1.50693e-11 1.55624e-11 1.68258e-11 1.72169e-11 1.79927e-11 1.823e-11 1.85627e-11 1.86257e-11 1.86382e-11 1.80127e-11 1.84075e-11 1.82498e-11 1.80971e-11 1.82489e-11 1.82901e-11 1.81594e-11 1.78726e-11 1.73244e-11 1.6803e-11 1.58185e-11 1.51221e-11 1.36618e-11 1.28352e-11 1.08726e-11 9.94737e-12 7.46693e-12 6.50365e-12 3.50695e-12 2.52137e-12 -9.52627e-13 -1.64194e-12 -5.5147e-12 -4.26008e-12 -1.89254e-12 -1.68556e-12 -1.63016e-12 5.47187e-13 2.85855e-12 2.89429e-12 2.71676e-12 4.85709e-12 6.91473e-12 6.91639e-12 6.70226e-12 8.62191e-12 1.03849e-11 1.03685e-11 1.01521e-11 1.18056e-11 1.32604e-11 1.32345e-11 1.30299e-11 1.43936e-11 1.55333e-11 1.5501e-11 1.53087e-11 1.63713e-11 1.71884e-11 1.7155e-11 1.69779e-11 1.77267e-11 1.82104e-11 1.81829e-11 1.80273e-11 1.84412e-11 1.86058e-11 1.85637e-11 1.84259e-11 1.84923e-11 
</DataArray>
<DataArray Name="Warping_Y" format="ascii" type="Float64">
-4.3404e-15 6.18408e-12 1.20369e-12 5.6469e-12 6.87878e-12 1.04749e-11 1.20449e-11 1.45754e-11 1.58958e-11 1.73471e-11 1.82531e-11 1.8735e-11 1.89062e-11 1.86163e-11 1.78692e-11 1.71184e-11 1.53504e-11 1.43133e-11 1.15314e-11 1.07005e-11 7.07397e-12 4.53526e-12 5.05947e-12 5.57617e-12 5.91697e-12 -2.02787e-12 8.86789e-12 9.72687e-12 1.31326e-11 1.37979e-11 1.59561e-11 1.64974e-11 1.76212e-11 1.79417e-11 1.81147e-11 1.79977e-11 1.75165e-11 1.66497e-11 1.58275e-11 1.38975e-11 1.29519e-11 9.89615e-12 8.91166e-12 4.4306e-12 3.30532e-12 -3.49516e-13 -7.96941e-13 -1.39912e-12 2.16545e-12 5.46487e-12 5.24623e-12 4.80032e-12 7.8193e-12 1.04175e-11 1.03742e-11 1.01258e-11 1.25008e-11 1.44876e-11 1.44271e-11 1.4165e-11 1.59626e-11 1.72664e-11 1.71938e-11 1.69306e-11 1.80466e-11 1.86404e-11 1.85503e-11 1.82871e-11 1.86767e-11 1.85219e-11 1.84334e-11 1.81963e-11 1.78615e-11 1.70078e-11 1.69186e-11 1.67106e-11 1.56851e-11 1.42211e-11 1.41403e-11 1.39601e-11 1.23046e-11 1.04993e-11 1.02772e-11 9.97467e-12 7.9415e-12 -5.65216e-13 3.29957e-12 4.30559e-12 9.5534e-13 2.25328e-12 -1.35128e-12 6.74824e-13 -3.20562e-12 -4.36968e-13 -4.71972e-12 -5.15827e-12 -1.78061e-12 -2.62369e-12 -3.67485e-12 -3.81662e-13 -4.25121e-12 4.34476e-13 -2.58869e-12 1.72931e-12 -4.12054e-13 3.4668e-12 2.10432e-12 5.40066e-12 4.34195e-12 3.84724e-12 3.36307e-12 2.74597e-12 2.13886e-12 1.78141e-12 1.20595e-12 4.38794e-13 6.62768e-14 6.2001e-14 -6.35212e-13 -1.55797e-12 -1.52374e-12 -1.13985e-12 -1.96257e-12 -3.05364e-12 -2.61579e-12 -1.87682e-11 -1.33637e-12 -4.86314e-12 -4.36395e-12 -7.69097e-12 -7.17537e-12 -1.02132e-11 -9.70844e-12 -1.2437e-11 -1.1951e-11 -1.43314e-11 -1.39076e-11 -1.59086e-11 -1.55701e-11 -1.71541e-11 -1.69246e-11 -1.80536e-11 -1.79667e-11 -1.85653e-11 -1.87616e-11 -1.90806e-11 -1.87997e-11 -1.88517e-11 -1.89392e-11 -1.86415e-11 -1.85079e-11 -1.81915e-11 -1.76756e-11 -1.74547e-11 -1.64915e-11 -1.63755e-11 -1.49925e-11 -1.49591e-11 -1.31906e-11 -1.3221e-11 -1.11006e-11 -1.11673e-11 -8.70937e-12 -8.80584e-12 -6.04316e-12 -6.15257e-12 -3.0133e-12 -3.41182e-12 -2.46593e-12 -4.29676e-12 -3.78699e-12 -3.37667e-12 -5.40454e-12 -7.11661e-12 -6.64747e-12 -6.29349e-12 -8.16973e-12 -9.68567e-12 -9.25304e-12 -8.93448e-12 -1.06128e-11 -1.19547e-11 -1.15651e-11 -1.12862e-11 -1.27535e-11 -1.39091e-11 -1.35727e-11 -1.33388e-11 -1.45902e-11 -1.55525e-11 -1.52766e-11 -1.50945e-11 -1.61194e-11 -1.68725e-11 -1.66648e-11 -1.65415e-11 -1.73266e-11 -1.78534e-11 -1.77217e-11 -1.76643e-11 -1.82009e-11 -1.84671e-11 -1.84237e-11 -1.8437e-11 -1.87911e-11 
</DataArray>
<DataArray Name="Warping_Z" format="ascii" type="Float64">
0 0 0 0 0 0 0 0 0 0 0 0 0 0 0 0 0 0 0 0 0 0 0 0 0 0 0 0 0 0 0 0 0 0 0 0 0 0 0 0 0 0 0 0 0 0 0 0 0 0 0 0 0 0 0 0 0 0 0 0 0 0 0 0 0 0 0 0 0 0 0 0 0 0 0 0 0 0 0 0 0 0 0 0 0 0 0 0 0 0 0 0 0 0 0 0 0 0 0 0 0 0 0 0 0 0 0 0 0 0 0 0 0 0 0 0 0 0 0 0 0 0 0 0 0 0 0 0 0 0 0 0 0 0 0 0 0 0 0 0 0 0 0 0 0 0 0 0 0 0 0 0 0 0 0 0 0 0 0 0 0 0 0 0 0 0 0 0 0 0 0 0 0 0 0 0 0 0 0 0 0 0 0 0 0 0 0 0 0 0 0 0 0 0 0 0 0 0 0 0 0 0 0 0 0 
</DataArray>
</PointData>
<CellData>
<DataArray Name="MaterialId" format="ascii" type="Float64">
1 1 1 1 1 1 1 1 1 1 1 1 1 1 1 1 1 1 1 1 1 1 1 1 1 1 1 1 1 1 1 1 1 1 1 1 1 1 1 1 1 1 1 1 1 1 1 1 1 1 
</DataArray>
<DataArray Name="FiberAngle" format="ascii" type="Float64">
0 0 0 0 0 0 0 0 0 0 0 0 0 0 0 0 0 0 0 0 0 0 0 0 0 0 0 0 0 0 0 0 0 0 0 0 0 0 0 0 0 0 0 0 0 0 0 0 0 0 
</DataArray>
<DataArray Name="Strain_11" format="ascii" type="Float64">
4.29324e-11 2.92009e-11 1.76543e-11 9.95848e-12 3.4958e-12 -2.06429e-12 -8.63248e-12 -1.65271e-11 -2.76404e-11 -4.10904e-11 5.25885e-11 3.81792e-11 2.8407e-11 1.82218e-11 9.39925e-12 8.81081e-13 -8.09371e-12 -1.83697e-11 -2.87157e-11 -4.24884e-11 -5.31851e-11 -6.47118e-11 -7.63401e-11 -8.5428e-11 -8.8553e-11 -5.41339e-11 -6.34999e-11 -7.23275e-11 -8.1481e-11 -9.11898e-11 5.48475e-11 4.82345e-11 4.11795e-11 3.52299e-11 2.9193e-11 2.30748e-11 1.68035e-11 1.03751e-11 4.01501e-12 -2.01336e-12 4.86254e-11 4.55176e-11 4.1733e-11 3.61237e-11 3.01347e-11 2.38615e-11 1.74788e-11 1.09885e-11 4.17302e-12 -3.44261e-12 
</DataArray>
<DataArray Name="Strain_22" format="ascii" type="Float64">
6.38944e-11 5.44248e-11 4.47258e-11 3.0536e-11 1.50994e-11 -1.3024e-12 -1.66378e-11 -3.06235e-11 -4.08994e-11 -5.03549e-11 6.39118e-11 5.49014e-11 4.16414e-11 2.8512e-11 1.39839e-11 -9.35752e-13 -1.5317e-11 -2.83556e-11 -4.10866e-11 -5.06722e-11 -5.52158e-11 -5.53418e-11 -5.66991e-11 -6.0025e-11 -7.08353e-11 -5.67559e-11 -6.09143e-11 -6.57271e-11 -6.98996e-11 -7.51113e-11 6.55989e-11 5.90202e-11 5.27067e-11 4.5117e-11 3.76602e-11 3.02605e-11 2.30022e-11 1.58905e-11 8.74177e-12 1.15187e-12 6.16427e-11 5.08955e-11 4.19444e-11 3.44914e-11 2.74044e-11 2.05697e-11 1.38405e-11 7.21041e-12 9.00867e-13 -4.72415e-12 
</DataArray>
<DataArray Name="Strain_12" format="ascii" type="Float64">
-3.42322e-11 -8.11276e-12 2.19503e-12 1.06331e-11 1.43907e-11 1.44448e-11 1.09854e-11 3.49418e-12 -5.3909e-12 -2.68814e-11 -2.81097e-11 -1.53179e-12 4.85895e-12 6.29695e-12 5.77714e-12 5.46059e-12 5.41913e-12 3.88901e-12 -1.84e-12 -2.45854e-11 -3.54792e-11 -2.3351e-11 -1.87478e-11 -6.69464e-12 2.70775e-11 -3.17285e-11 -1.05511e-11 -2.86477e-12 -2.08996e-12 -1.33193e-11 -3.95331e-11 -1.5482e-11 -8.6945e-12 -6.19409e-12 -5.08782e-12 -4.54357e-12 -4.13009e-12 -3.68498e-12 -2.78305e-12 1.58626e-12 -3.60716e-11 -1.92387e-11 -1.39494e-11 -9.60604e-12 -6.96727e-12 -4.73191e-12 -2.84209e-12 -1.09496e-12 6.76237e-13 3.02711e-12 
</DataArray>
<DataArray Name="Strain_13" format="ascii" type="Float64">
0 0 0 0 0 0 0 0 0 0 0 0 0 0 0 0 0 0 0 0 0 0 0 0 0 0 0 0 0 0 0 0 0 0 0 0 0 0 0 0 0 0 0 0 0 0 0 0 0 0 
</DataArray>
<DataArray Name="Strain_23" format="ascii" type="Float64">
0 0 0 0 0 0 0 0 0 0 0 0 0 0 0 0 0 0 0 0 0 0 0 0 0 0 0 0 0 0 0 0 0 0 0 0 0 0 0 0 0 0 0 0 0 0 0 0 0 0 
</DataArray>
<DataArray Name="Strain_33" format="ascii" type="Float64">
0.0905 0.1815 0.2725 0.3635 0.4545 0.5455 0.6365 0.7275 0.8185 0.9095 0.0635 0.1605 0.2575 0.3545 0.4515 0.5485 0.6455 0.7425 0.8395 0.9365 0.955 0.955 0.955 0.955 0.955 0.985 0.985 0.985 0.985 0.985 0.015 0.015 0.015 0.015 0.015 0.015 0.015 0.015 0.015 0.015 0.045 0.045 0.045 0.045 0.045 0.045 0.045 0.045 0.045 0.045 
</DataArray>
<DataArray Name="Stress_11" format="ascii" type="Float64">
3.078e+11 6.17301e+11 9.26802e+11 1.2363e+12 1.5458e+12 1.85531e+12 2.16481e+12 2.47431e+12 2.78381e+12 3.09331e+12 2.1597e+11 5.45878e+11 8.75786e+11 1.20569e+12 1.5356e+12 1.86551e+12 2.19542e+12 2.52532e+12 2.85523e+12 3.18514e+12 3.24806e+12 3.24806e+12 3.24806e+12 3.24806e+12 3.24806e+12 3.35009e+12 3.35009e+12 3.35009e+12 3.35009e+12 3.35009e+12 5.10166e+10 5.10166e+10 5.10166e+10 5.10166e+10 5.10166e+10 5.10166e+10 5.10166e+10 5.10166e+10 5.10166e+10 5.10166e+10 1.5305e+11 1.5305e+11 1.5305e+11 1.5305e+11 1.5305e+11 1.5305e+11 1.5305e+11 1.5305e+11 1.5305e+11 1.5305e+11 
</DataArray>
<DataArray Name="Stress_22" format="ascii" type="Float64">
3.078e+11 6.17301e+11 9.26802e+11 1.2363e+12 1.5458e+12 1.85531e+12 2.16481e+12 2.47431e+12 2.78381e+12 3.09331e+12 2.1597e+11 5.45878e+11 8.75786e+11 1.20569e+12 1.5356e+12 1.86551e+12 2.19542e+12 2.52532e+12 2.85523e+12 3.18514e+12 3.24806e+12 3.24806e+12 3.24806e+12 3.24806e+12 3.24806e+12 3.35009e+12 3.35009e+12 3.35009e+12 3.35009e+12 3.35009e+12 5.10166e+10 5.10166e+10 5.10166e+10 5.10166e+10 5.10166e+10 5.10166e+10 5.10166e+10 5.10166e+10 5.10166e+10 5.10166e+10 1.5305e+11 1.5305e+11 1.5305e+11 1.5305e+11 1.5305e+11 1.5305e+11 1.5305e+11 1.5305e+11 1.5305e+11 1.5305e+11 
</DataArray>
<DataArray Name="Stress_12" format="ascii" type="Float64">
-2.37606 -0.563106 0.152357 0.738043 0.998857 1.00261 0.762495 0.242531 -0.374182 -1.86584 -1.9511 -0.106322 0.33726 0.437072 0.400991 0.37902 0.376142 0.269936 -0.127715 -1.70648 -2.46261 -1.62079 -1.30128 -0.464675 1.87945 -2.20227 -0.732351 -0.198843 -0.145064 -0.924494 -2.74399 -1.07461 -0.603485 -0.429932 -0.353145 -0.315369 -0.28667 -0.255775 -0.193171 0.110103 -2.50373 -1.33536 -0.968226 -0.666755 -0.483598 -0.328442 -0.19727 -0.0760014 0.0469376 0.210112 
</DataArray>
<DataArray Name="Stress_13" format="ascii" type="Float64">
0 0 0 0 0 0 0 0 0 0 0 0 0 0 0 0 0 0 0 0 0 0 0 0 0 0 0 0 0 0 0 0 0 0 0 0 0 0 0 0 0 0 0 0 0 0 0 0 0 0 
</DataArray>
<DataArray Name="Stress_23" format="ascii" type="Float64">
0 0 0 0 0 0 0 0 0 0 0 0 0 0 0 0 0 0 0 0 0 0 0 0 0 0 0 0 0 0 0 0 0 0 0 0 0 0 0 0 0 0 0 0 0 0 0 0 0 0 
</DataArray>
<DataArray Name="Stress_33" format="ascii" type="Float64">
3.20364e+11 6.42497e+11 9.64631e+11 1.28676e+12 1.6089e+12 1.93103e+12 2.25317e+12 2.5753e+12 2.89743e+12 3.21957e+12 2.24786e+11 5.68159e+11 9.11532e+11 1.25491e+12 1.59828e+12 1.94165e+12 2.28503e+12 2.6284e+12 2.97177e+12 3.31514e+12 3.38063e+12 3.38063e+12 3.38063e+12 3.38063e+12 3.38063e+12 3.48683e+12 3.48683e+12 3.48683e+12 3.48683e+12 3.48683e+12 5.3099e+10 5.3099e+10 5.3099e+10 5.3099e+10 5.3099e+10 5.3099e+10 5.3099e+10 5.3099e+10 5.3099e+10 5.3099e+10 1.59297e+11 1.59297e+11 1.59297e+11 1.59297e+11 1.59297e+11 1.59297e+11 1.59297e+11 1.59297e+11 1.59297e+11 1.59297e+11 
</DataArray>
</CellData>
<Points>
<DataArray NumberOfComponents="3" format="ascii" type="Float64">
0.06 0.06 0 0.06 0.94 0 0.06 0.104 0 0.06 0.148 0 0.06 0.192 0 0.06 0.236 0 0.06 0.28 0 0.06 0.324 0 0.06 0.368 0 0.06 0.412 0 0.06 0.456 0 0.06 0.5 0 0.06 0.544 0 0.06 0.588 0 0.06 0.632 0 0.06 0.676 0 0.06 0.72 0 0.06 0.764 0 0.06 0.808 0 0.06 0.852 0 0.06 0.896 0 0 1 0 0.015 0.985 0 0.03 0.97 0 0.045 0.955 0 0 0 0 0 0.95 0 0 0.9 0 0 0.85 0 0 0.8 0 0 0.75 0 0 0.7 0 0 0.65 0 0 0.6 0 0 0.55 0 0 0.5 0 0 0.45 0 0 0.4 0 0 0.35 0 0 0.3 0 0 0.25 0 0 0.2 0 0 0.15 0 0 0.1 0 0 0.05 0 0.045 0.045 0 0.03 0.03 0 0.015 0.015 0 0.03 0.077 0 0.045 0.136 0 0.03 0.124 0 0.015 0.112 0 0.03 0.171 0 0.045 0.227 0 0.03 0.218 0 0.015 0.209 0 0.03 0.265 0 0.045 0.318 0 0.03 0.312 0 0.015 0.306 0 0.03 0.359 0 0.045 0.409 0 0.03 0.406 0 0.015 0.403 0 0.03 0.453 0 0.045 0.5 0 0.03 0.5 0 0.015 0.5 0 0.03 0.547 0 0.045 0.591 0 0.03 0.594 0 0.015 0.597 0 0.03 0.641 0 0.045 0.682 0 0.03 0.688 0 0.015 0.694 0 0.03 0.735 0 0.045 0.773 0 0.03 0.782 0 0.015 0.791 0 0.03 0.829 0 0.045 0.864 0 0.03 0.876 0 0.015 0.888 0 0.03 0.923 0 0.5 0.94 0 0.104 0.94 0 0.148 0.94 0 0.192 0.94 0 0.236 0.94 0 0.28 0.94 0 0.324 0.94 0 0.368 0.94 0 0.412 0.94 0 0.456 0.94 0 0.5 1 0 0.5 0.955 0 0.5 0.97 0 0.5 0.985 0 0.45 1 0 0.4 1 0 0.35 1 0 0.3 1 0 0.25 1 0 0.2 1 0 0.15 1 0 0.1 1 0 0.05 1 0 0.077 0.97 0 0.136 0.955 0 0.124 0.97 0 0.112 0.985 0 0.171 0.97 0 0.227 0.955 0 0.218 0.97 0 0.209 0.985 0 0.265 0.97 0 0.318 0.955 0 0.312 0.97 0 0.306 0.985 0 0.359 0.97 0 0.409 0.955 0 0.406 0.97 0 0.403 0.985 0 0.453 0.97 0 1 0 0 0.05 0 0 0.1 0 0 0.15 0 0 0.2 0 0 0.25 0 0 0.3 0 0 0.35 0 0 0.4 0 0 0.45 0 0 0.5 0 0 0.55 0 0 0.6 0 0 0.65 0 0 0.7 0 0 0.75 0 0 0.8 0 0 0.85 0 0 0.9 0 0 0.95 0 0 1 0.06 0 1 0.015 0 1 0.03 0 1 0.045 0 0.953 0.06 0 0.906 0.06 0 0.859 0.06 0 0.812 0.06 0 0.765 0.06 0 0.718 0.06 0 0.671 0.06 0 0.624 0.06 0 0.577 0.06 0 0.53 0.06 0 0.483 0.06 0 0.436 0.06 0 0.389 0.06 0 0.342 0.06 0 0.295 0.06 0 0.248 0.06 0 0.201 0.06 0 0.154 0.06 0 0.107 0.06 0 0.0785 0.03 0 0.1135 0.015 0 0.127 0.03 0 0.1405 0.045 0 0.1755 0.03 0 0.212 0.015 0 0.224 0.03 0 0.236 0.045 0 0.2725 0.03 0 0.3105 0.015 0 0.321 0.03 0 0.3315 0.045 0 0.3695 0.03 0 0.409 0.015 0 0.418 0.03 0 0.427 0.045 0 0.4665 0.03 0 0.5075 0.015 0 0.515 0.03 0 0.5225 0.045 0 0.5635 0.03 0 0.606 0.015 0 0.612 0.03 0 0.618 0.045 0 0.6605 0.03 0 0.7045 0.015 0 0.709 0.03 0 0.7135 0.045 0 0.7575 0.03 0 0.803 0.015 0 0.806 0.03 0 0.809 0.045 0 0.8545 0.03 0 0.9015 0.015 0 0.903 0.03 0 0.9045 0.045 0 0.9515 0.03 0 
</DataArray>
</Points>
<Cells>
<DataArray Name="connectivity" format="ascii" type="Int64">
0 3 50 46 2 49 48 45 3 5 54 50 4 53 52 49 5 7 58 54 6 57 56 53 7 9 62 58 8 61 60 57 9 11 66 62 10 65 64 61 11 13 70 66 12 69 68 65 13 15 74 70 14 73 72 69 15 17 78 74 16 77 76 73 17 19 82 78 18 81 80 77 19 1 23 82 20 24 84 81 46 50 43 25 48 51 44 47 50 54 41 43 52 55 42 51 54 58 39 41 56 59 40 55 58 62 37 39 60 63 38 59 62 66 35 37 64 67 36 63 66 70 33 35 68 71 34 67 70 74 31 33 72 75 32 71 74 78 29 31 76 79 30 75 78 82 27 29 80 83 28 79 82 23 21 27 84 22 26 83 1 87 110 23 86 109 108 24 87 89 114 110 88 113 112 109 89 91 118 114 90 117 116 113 91 93 122 118 92 121 120 117 93 85 97 122 94 96 124 121 23 110 106 21 108 111 107 22 110 114 104 106 112 115 105 111 114 118 102 104 116 119 103 115 118 122 100 102 120 123 101 119 122 97 95 100 124 98 99 123 25 127 170 46 126 169 168 47 127 129 174 170 128 173 172 169 129 131 178 174 130 177 176 173 131 133 182 178 132 181 180 177 133 135 186 182 134 185 184 181 135 137 190 186 136 189 188 185 137 139 194 190 138 193 192 189 139 141 198 194 140 197 196 193 141 143 202 198 142 201 200 197 143 125 147 202 144 146 204 201 46 170 166 0 168 171 167 45 170 174 164 166 172 175 165 171 174 178 162 164 176 179 163 175 178 182 160 162 180 183 161 179 182 186 158 160 184 187 159 183 186 190 156 158 188 191 157 187 190 194 154 156 192 195 155 191 194 198 152 154 196 199 153 195 198 202 150 152 200 203 151 199 202 147 145 150 204 148 149 203 
</DataArray>
<DataArray Name="offsets" format="ascii" type="Int64">
8 16 24 32 40 48 56 64 72 80 88 96 104 112 120 128 136 144 152 160 168 176 184 192 200 208 216 224 232 240 248 256 264 272 280 288 296 304 312 320 328 336 344 352 360 368 376 384 392 400 
</DataArray>
<DataArray Name="types" format="ascii" type="Int8">
23 23 23 23 23 23 23 23 23 23 23 23 23 23 23 23 23 23 23 23 23 23 23 23 23 23 23 23 23 23 23 23 23 23 23 23 23 23 23 23 23 23 23 23 23 23 23 23 23 23 
</DataArray>
</Cells>
</Piece>
</UnstructuredGrid>
</VTKFile>
