<?xml version="1.0"?>
<VTKFile byte_order="LittleEndian" type="UnstructuredGrid" version="0.1">
<UnstructuredGrid>
<Piece NumberOfCells="100" NumberOfPoints="121">
<PointData>
<DataArray Name="Warping_X" format="ascii" type="Float64">
0 0 0 0 0 0 0 0 0 0 0 0 0 0 0 0 0 0 0 0 0 0 0 0 0 0 0 0 0 0 0 0 0 0 0 0 0 0 0 0 0 0 0 0 0 0 0 0 0 0 0 0 0 0 0 0 0 0 0 0 0 0 0 0 0 0 0 0 0 0 0 0 0 0 0 0 0 0 0 0 0 0 0 0 0 0 0 0 0 0 0 0 0 0 0 0 0 0 0 0 0 0 0 0 0 0 0 0 0 0 0 0 0 0 0 0 0 0 0 0 0 
</DataArray>
<DataArray Name="Warping_Y" format="ascii" type="Float64">
-0 0 0 0 0 0 0 0 0 0 0 0 0 0 0 0 0 0 0 0 0 0 0 0 0 0 0 0 0 0 0 0 0 0 0 0 0 0 0 0 0 0 0 0 0 0 0 0 0 0 0 0 0 0 0 0 0 0 0 0 0 0 0 0 0 0 0 0 0 0 0 0 0 0 0 0 0 0 0 0 0 0 0 0 0 0 0 0 0 0 0 0 0 0 0 0 0 0 0 0 0 0 0 0 0 0 0 0 0 0 0 0 0 0 0 0 0 0 0 0 0 
</DataArray>
<DataArray Name="Warping_Z" format="ascii" type="Float64">
0 0 0 0 0 0 0 0 0 0 0 0 0 0 0 0 0 0 0 0 0 0 0 0 0 0 0 0 0 0 0 0 0 0 0 0 0 0 0 0 0 0 0 0 0 0 0 0 0 0 0 0 0 0 0 0 0 0 0 0 0 0 0 0 0 0 0 0 0 0 0 0 0 0 0 0 0 0 0 0 0 0 0 0 0 0 0 0 0 0 0 0 0 0 0 0 0 0 0 0 0 0 0 0 0 0 0 0 0 0 0 0 0 0 0 0 0 0 0 0 0 
</DataArray>
</PointData>
<CellData>
<DataArray Name="MaterialId" format="ascii" type="Float64">
1 1 1 1 1 1 1 1 1 1 1 1 1 1 1 1 1 1 1 1 1 1 1 1 1 1 1 1 1 1 1 1 1 1 1 1 1 1 1 1 1 1 1 1 1 1 1 1 1 1 1 1 1 1 1 1 1 1 1 1 1 1 1 1 1 1 1 1 1 1 1 1 1 1 1 1 1 1 1 1 1 1 1 1 1 1 1 1 1 1 1 1 1 1 1 1 1 1 1 1 
</DataArray>
<DataArray Name="FiberAngle" format="ascii" type="Float64">
0 0 0 0 0 0 0 0 0 0 0 0 0 0 0 0 0 0 0 0 0 0 0 0 0 0 0 0 0 0 0 0 0 0 0 0 0 0 0 0 0 0 0 0 0 0 0 0 0 0 0 0 0 0 0 0 0 0 0 0 0 0 0 0 0 0 0 0 0 0 0 0 0 0 0 0 0 0 0 0 0 0 0 0 0 0 0 0 0 0 0 0 0 0 0 0 0 0 0 0 
</DataArray>
<DataArray Name="Strain_11" format="ascii" type="Float64">
0 0 0 0 0 0 0 0 0 0 0 0 0 0 0 0 0 0 0 0 0 0 0 0 0 0 0 0 0 0 0 0 0 0 0 0 0 0 0 0 0 0 0 0 0 0 0 0 0 0 0 0 0 0 0 0 0 0 0 0 0 0 0 0 0 0 0 0 0 0 0 0 0 0 0 0 0 0 0 0 0 0 0 0 0 0 0 0 0 0 0 0 0 0 0 0 0 0 0 0 
</DataArray>
<DataArray Name="Strain_22" format="ascii" type="Float64">
0 0 0 0 0 0 0 0 0 0 0 0 0 0 0 0 0 0 0 0 0 0 0 0 0 0 0 0 0 0 0 0 0 0 0 0 0 0 0 0 0 0 0 0 0 0 0 0 0 0 0 0 0 0 0 0 0 0 0 0 0 0 0 0 0 0 0 0 0 0 0 0 0 0 0 0 0 0 0 0 0 0 0 0 0 0 0 0 0 0 0 0 0 0 0 0 0 0 0 0 
</DataArray>
<DataArray Name="Strain_12" format="ascii" type="Float64">
0 0 0 0 0 0 0 0 0 0 0 0 0 0 0 0 0 0 0 0 0 0 0 0 0 0 0 0 0 0 0 0 0 0 0 0 0 0 0 0 0 0 0 0 0 0 0 0 0 0 0 0 0 0 0 0 0 0 0 0 0 0 0 0 0 0 0 0 0 0 0 0 0 0 0 0 0 0 0 0 0 0 0 0 0 0 0 0 0 0 0 0 0 0 0 0 0 0 0 0 
</DataArray>
<DataArray Name="Strain_13" format="ascii" type="Float64">
-0.0939153 -0.177459 -0.170774 -0.118092 -0.0418118 0.0418118 0.118092 0.170774 0.177459 0.0939153 -0.0336589 -0.084144 -0.0929317 -0.0682875 -0.0247861 0.0247861 0.0682875 0.0929317 0.084144 0.0336589 -0.0159353 -0.0403151 -0.0475946 -0.0367052 -0.013617 0.013617 0.0367052 0.0475946 0.0403151 0.0159353 -0.00714369 -0.0184144 -0.0222087 -0.0175461 -0.00660253 0.00660253 0.0175461 0.0222087 0.0184144 0.00714369 -0.00205403 -0.00531712 -0.00646927 -0.0051537 -0.00195038 0.00195038 0.0051537 0.00646927 0.00531712 0.00205403 0.00205403 0.00531712 0.00646927 0.0051537 0.00195038 -0.00195038 -0.0051537 -0.00646927 -0.00531712 -0.00205403 0.00714369 0.0184144 0.0222087 0.0175461 0.00660253 -0.00660253 -0.0175461 -0.0222087 -0.0184144 -0.00714369 0.0159353 0.0403151 0.0475946 0.0367052 0.013617 -0.013617 -0.0367052 -0.0475946 -0.0403151 -0.0159353 0.0336589 0.084144 0.0929317 0.0682875 0.0247861 -0.0247861 -0.0682875 -0.0929317 -0.084144 -0.0336589 0.0939153 0.177459 0.170774 0.118092 0.0418118 -0.0418118 -0.118092 -0.170774 -0.177459 -0.0939153 
</DataArray>
<DataArray Name="Strain_23" format="ascii" type="Float64">
-0.965271 -1.04435 -1.07567 -1.09268 -1.10027 -1.10027 -1.09268 -1.07567 -1.04435 -0.965271 0.289247 0.139581 0.0549466 0.0080789 -0.0132893 -0.0132893 0.0080789 0.0549466 0.139581 0.289247 1.19806 1.02635 0.912927 0.845186 0.813527 0.813527 0.845186 0.912927 1.02635 1.19806 1.79491 1.61402 1.48733 1.40803 1.37006 1.37006 1.40803 1.48733 1.61402 1.79491 2.09125 1.90686 1.77487 1.69066 1.64985 1.64985 1.69066 1.77487 1.90686 2.09125 2.09125 1.90686 1.77487 1.69066 1.64985 1.64985 1.69066 1.77487 1.90686 2.09125 1.79491 1.61402 1.48733 1.40803 1.37006 1.37006 1.40803 1.48733 1.61402 1.79491 1.19806 1.02635 0.912927 0.845186 0.813527 0.813527 0.845186 0.912927 1.02635 1.19806 0.289247 0.139581 0.0549466 0.0080789 -0.0132893 -0.0132893 0.0080789 0.0549466 0.139581 0.289247 -0.965271 -1.04435 -1.07567 -1.09268 -1.10027 -1.10027 -1.09268 -1.07567 -1.04435 -0.965271 
</DataArray>
<DataArray Name="Strain_33" format="ascii" type="Float64">
0 0 0 0 0 0 0 0 0 0 0 0 0 0 0 0 0 0 0 0 0 0 0 0 0 0 0 0 0 0 0 0 0 0 0 0 0 0 0 0 0 0 0 0 0 0 0 0 0 0 0 0 0 0 0 0 0 0 0 0 0 0 0 0 0 0 0 0 0 0 0 0 0 0 0 0 0 0 0 0 0 0 0 0 0 0 0 0 0 0 0 0 0 0 0 0 0 0 0 0 
</DataArray>
<DataArray Name="Stress_11" format="ascii" type="Float64">
0 0 0 0 0 0 0 0 0 0 0 0 0 0 0 0 0 0 0 0 0 0 0 0 0 0 0 0 0 0 0 0 0 0 0 0 0 0 0 0 0 0 0 0 0 0 0 0 0 0 0 0 0 0 0 0 0 0 0 0 0 0 0 0 0 0 0 0 0 0 0 0 0 0 0 0 0 0 0 0 0 0 0 0 0 0 0 0 0 0 0 0 0 0 0 0 0 0 0 0 
</DataArray>
<DataArray Name="Stress_22" format="ascii" type="Float64">
0 0 0 0 0 0 0 0 0 0 0 0 0 0 0 0 0 0 0 0 0 0 0 0 0 0 0 0 0 0 0 0 0 0 0 0 0 0 0 0 0 0 0 0 0 0 0 0 0 0 0 0 0 0 0 0 0 0 0 0 0 0 0 0 0 0 0 0 0 0 0 0 0 0 0 0 0 0 0 0 0 0 0 0 0 0 0 0 0 0 0 0 0 0 0 0 0 0 0 0 
</DataArray>
<DataArray Name="Stress_12" format="ascii" type="Float64">
0 0 0 0 0 0 0 0 0 0 0 0 0 0 0 0 0 0 0 0 0 0 0 0 0 0 0 0 0 0 0 0 0 0 0 0 0 0 0 0 0 0 0 0 0 0 0 0 0 0 0 0 0 0 0 0 0 0 0 0 0 0 0 0 0 0 0 0 0 0 0 0 0 0 0 0 0 0 0 0 0 0 0 0 0 0 0 0 0 0 0 0 0 0 0 0 0 0 0 0 
</DataArray>
<DataArray Name="Stress_13" format="ascii" type="Float64">
-3.91314 -7.39413 -7.11557 -4.92049 -1.74216 1.74216 4.92049 7.11557 7.39413 3.91314 -1.40245 -3.506 -3.87215 -2.84531 -1.03276 1.03276 2.84531 3.87215 3.506 1.40245 -0.66397 -1.6798 -1.98311 -1.52938 -0.567377 0.567377 1.52938 1.98311 1.6798 0.66397 -0.297654 -0.767267 -0.925362 -0.731086 -0.275106 0.275106 0.731086 0.925362 0.767267 0.297654 -0.0855848 -0.221547 -0.269553 -0.214738 -0.0812659 0.0812659 0.214738 0.269553 0.221547 0.0855848 0.0855848 0.221547 0.269553 0.214738 0.0812659 -0.0812659 -0.214738 -0.269553 -0.221547 -0.0855848 0.297654 0.767267 0.925362 0.731086 0.275106 -0.275106 -0.731086 -0.925362 -0.767267 -0.297654 0.66397 1.6798 1.98311 1.52938 0.567377 -0.567377 -1.52938 -1.98311 -1.6798 -0.66397 1.40245 3.506 3.87215 2.84531 1.03276 -1.03276 -2.84531 -3.87215 -3.506 -1.40245 3.91314 7.39413 7.11557 4.92049 1.74216 -1.74216 -4.92049 -7.11557 -7.39413 -3.91314 
</DataArray>
<DataArray Name="Stress_23" format="ascii" type="Float64">
-40.2196 -43.5144 -44.8194 -45.5282 -45.8444 -45.8444 -45.5282 -44.8194 -43.5144 -40.2196 12.0519 5.81586 2.28944 0.336621 -0.553722 -0.553722 0.336621 2.28944 5.81586 12.0519 49.919 42.7647 38.0386 35.2161 33.897 33.897 35.2161 38.0386 42.7647 49.919 74.7878 67.2508 61.9721 58.6677 57.0859 57.0859 58.6677 61.9721 67.2508 74.7878 87.1353 79.4525 73.9529 70.4441 68.7438 68.7438 70.4441 73.9529 79.4525 87.1353 87.1353 79.4525 73.9529 70.4441 68.7438 68.7438 70.4441 73.9529 79.4525 87.1353 74.7878 67.2508 61.9721 58.6677 57.0859 57.0859 58.6677 61.9721 67.2508 74.7878 49.919 42.7647 38.0386 35.2161 33.897 33.897 35.2161 38.0386 42.7647 49.919 12.0519 5.81586 2.28944 0.336621 -0.553722 -0.553722 0.336621 2.28944 5.81586 12.0519 -40.2196 -43.5144 -44.8194 -45.5282 -45.8444 -45.8444 -45.5282 -44.8194 -43.5144 -40.2196 
</DataArray>
<DataArray Name="Stress_33" format="ascii" type="Float64">
0 0 0 0 0 0 0 0 0 0 0 0 0 0 0 0 0 0 0 0 0 0 0 0 0 0 0 0 0 0 0 0 0 0 0 0 0 0 0 0 0 0 0 0 0 0 0 0 0 0 0 0 0 0 0 0 0 0 0 0 0 0 0 0 0 0 0 0 0 0 0 0 0 0 0 0 0 0 0 0 0 0 0 0 0 0 0 0 0 0 0 0 0 0 0 0 0 0 0 0 
</DataArray>
</CellData>
<Points>
<DataArray NumberOfComponents="3" format="ascii" type="Float64">
-0.05 -0.05 0 -0.04 -0.05 0 -0.03 -0.05 0 -0.02 -0.05 0 -0.01 -0.05 0 0 -0.05 0 0.01 -0.05 0 0.02 -0.05 0 0.03 -0.05 0 0.04 -0.05 0 0.05 -0.05 0 -0.05 -0.04 0 -0.04 -0.04 0 -0.03 -0.04 0 -0.02 -0.04 0 -0.01 -0.04 0 0 -0.04 0 0.01 -0.04 0 0.02 -0.04 0 0.03 -0.04 0 0.04 -0.04 0 0.05 -0.04 0 -0.05 -0.03 0 -0.04 -0.03 0 -0.03 -0.03 0 -0.02 -0.03 0 -0.01 -0.03 0 0 -0.03 0 0.01 -0.03 0 0.02 -0.03 0 0.03 -0.03 0 0.04 -0.03 0 0.05 -0.03 0 -0.05 -0.02 0 -0.04 -0.02 0 -0.03 -0.02 0 -0.02 -0.02 0 -0.01 -0.02 0 0 -0.02 0 0.01 -0.02 0 0.02 -0.02 0 0.03 -0.02 0 0.04 -0.02 0 0.05 -0.02 0 -0.05 -0.01 0 -0.04 -0.01 0 -0.03 -0.01 0 -0.02 -0.01 0 -0.01 -0.01 0 0 -0.01 0 0.01 -0.01 0 0.02 -0.01 0 0.03 -0.01 0 0.04 -0.01 0 0.05 -0.01 0 -0.05 0 0 -0.04 0 0 -0.03 0 0 -0.02 0 0 -0.01 0 0 0 0 0 0.01 0 0 0.02 0 0 0.03 0 0 0.04 0 0 0.05 0 0 -0.05 0.01 0 -0.04 0.01 0 -0.03 0.01 0 -0.02 0.01 0 -0.01 0.01 0 0 0.01 0 0.01 0.01 0 0.02 0.01 0 0.03 0.01 0 0.04 0.01 0 0.05 0.01 0 -0.05 0.02 0 -0.04 0.02 0 -0.03 0.02 0 -0.02 0.02 0 -0.01 0.02 0 0 0.02 0 0.01 0.02 0 0.02 0.02 0 0.03 0.02 0 0.04 0.02 0 0.05 0.02 0 -0.05 0.03 0 -0.04 0.03 0 -0.03 0.03 0 -0.02 0.03 0 -0.01 0.03 0 0 0.03 0 0.01 0.03 0 0.02 0.03 0 0.03 0.03 0 0.04 0.03 0 0.05 0.03 0 -0.05 0.04 0 -0.04 0.04 0 -0.03 0.04 0 -0.02 0.04 0 -0.01 0.04 0 0 0.04 0 0.01 0.04 0 0.02 0.04 0 0.03 0.04 0 0.04 0.04 0 0.05 0.04 0 -0.05 0.05 0 -0.04 0.05 0 -0.03 0.05 0 -0.02 0.05 0 -0.01 0.05 0 0 0.05 0 0.01 0.05 0 0.02 0.05 0 0.03 0.05 0 0.04 0.05 0 0.05 0.05 0 
</DataArray>
</Points>
<Cells>
<DataArray Name="connectivity" format="ascii" type="Int64">
0 1 12 11 1 2 13 12 2 3 14 13 3 4 15 14 4 5 16 15 5 6 17 16 6 7 18 17 7 8 19 18 8 9 20 19 9 10 21 20 11 12 23 22 12 13 24 23 13 14 25 24 14 15 26 25 15 16 27 26 16 17 28 27 17 18 29 28 18 19 30 29 19 20 31 30 20 21 32 31 22 23 34 33 23 24 35 34 24 25 36 35 25 26 37 36 26 27 38 37 27 28 39 38 28 29 40 39 29 30 41 40 30 31 42 41 31 32 43 42 33 34 45 44 34 35 46 45 35 36 47 46 36 37 48 47 37 38 49 48 38 39 50 49 39 40 51 50 40 41 52 51 41 42 53 52 42 43 54 53 44 45 56 55 45 46 57 56 46 47 58 57 47 48 59 58 48 49 60 59 49 50 61 60 50 51 62 61 51 52 63 62 52 53 64 63 53 54 65 64 55 56 67 66 56 57 68 67 57 58 69 68 58 59 70 69 59 60 71 70 60 61 72 71 61 62 73 72 62 63 74 73 63 64 75 74 64 65 76 75 66 67 78 77 67 68 79 78 68 69 80 79 69 70 81 80 70 71 82 81 71 72 83 82 72 73 84 83 73 74 85 84 74 75 86 85 75 76 87 86 77 78 89 88 78 79 90 89 79 80 91 90 80 81 92 91 81 82 93 92 82 83 94 93 83 84 95 94 84 85 96 95 85 86 97 96 86 87 98 97 88 89 100 99 89 90 101 100 90 91 102 101 91 92 103 102 92 93 104 103 93 94 105 104 94 95 106 105 95 96 107 106 96 97 108 107 97 98 109 108 99 100 111 110 100 101 112 111 101 102 113 112 102 103 114 113 103 104 115 114 104 105 116 115 105 106 117 116 106 107 118 117 107 108 119 118 108 109 120 119 
</DataArray>
<DataArray Name="offsets" format="ascii" type="Int64">
4 8 12 16 20 24 28 32 36 40 44 48 52 56 60 64 68 72 76 80 84 88 92 96 100 104 108 112 116 120 124 128 132 136 140 144 148 152 156 160 164 168 172 176 180 184 188 192 196 200 204 208 212 216 220 224 228 232 236 240 244 248 252 256 260 264 268 272 276 280 284 288 292 296 300 304 308 312 316 320 324 328 332 336 340 344 348 352 356 360 364 368 372 376 380 384 388 392 396 400 
</DataArray>
<DataArray Name="types" format="ascii" type="Int8">
9 9 9 9 9 9 9 9 9 9 9 9 9 9 9 9 9 9 9 9 9 9 9 9 9 9 9 9 9 9 9 9 9 9 9 9 9 9 9 9 9 9 9 9 9 9 9 9 9 9 9 9 9 9 9 9 9 9 9 9 9 9 9 9 9 9 9 9 9 9 9 9 9 9 9 9 9 9 9 9 9 9 9 9 9 9 9 9 9 9 9 9 9 9 9 9 9 9 9 9 
</DataArray>
</Cells>
</Piece>
</UnstructuredGrid>
</VTKFile>
