<?xml version="1.0"?>
<VTKFile byte_order="LittleEndian" type="UnstructuredGrid" version="0.1">
<UnstructuredGrid>
<Piece NumberOfCells="100" NumberOfPoints="121">
<PointData>
<DataArray Name="Warping_X" format="ascii" type="Float64">
0.000771284 -0.107368 -0.191518 -0.251607 -0.287653 -0.299668 -0.287653 -0.251607 -0.191518 -0.107368 0.000771284 0.108064 0.000101216 -0.0838217 -0.143805 -0.179803 -0.191804 -0.179803 -0.143805 -0.0838217 0.000101216 0.108064 0.19184 0.0838679 -6.66996e-05 -0.0600056 -0.0959736 -0.107964 -0.0959736 -0.0600056 -6.66996e-05 0.0838679 0.19184 0.251722 0.143751 0.0597967 -0.00015187 -0.0361148 -0.048102 -0.0361148 -0.00015187 0.0597967 0.143751 0.251722 0.28766 0.179689 0.0957253 0.0357653 -0.000203255 -0.0121914 -0.000203255 0.0357653 0.0957253 0.179689 0.28766 0.299639 0.19167 0.107703 0.0477386 0.0117672 -0.000221918 0.0117672 0.0477386 0.107703 0.19167 0.299639 0.28766 0.179689 0.0957253 0.0357653 -0.000203255 -0.0121914 -0.000203255 0.0357653 0.0957253 0.179689 0.28766 0.251722 0.143751 0.0597967 -0.00015187 -0.0361148 -0.048102 -0.0361148 -0.00015187 0.0597967 0.143751 0.251722 0.19184 0.0838679 -6.66996e-05 -0.0600056 -0.0959736 -0.107964 -0.0959736 -0.0600056 -6.66996e-05 0.0838679 0.19184 0.108064 0.000101216 -0.0838217 -0.143805 -0.179803 -0.191804 -0.179803 -0.143805 -0.0838217 0.000101216 0.108064 0.000771284 -0.107368 -0.191518 -0.251607 -0.287653 -0.299668 -0.287653 -0.251607 -0.191518 -0.107368 0.000771284 
</DataArray>
<DataArray Name="Warping_Y" format="ascii" type="Float64">
0.598051 0.479209 0.35955 0.239758 0.119892 2.14586e-17 -0.119892 -0.239758 -0.35955 -0.479209 -0.598051 0.478742 0.383256 0.28762 0.191799 0.0959137 1.07788e-17 -0.0959137 -0.191799 -0.28762 -0.383256 -0.478742 0.359175 0.287415 0.215667 0.143831 0.0719292 -1.75586e-17 -0.0719292 -0.143831 -0.215667 -0.287415 -0.359175 0.239487 0.19161 0.143756 0.095871 0.0479465 -3.8538e-17 -0.0479465 -0.095871 -0.143756 -0.19161 -0.239487 0.119752 0.0958064 0.0718727 0.0479298 0.0239704 -3.61693e-17 -0.0239704 -0.0479298 -0.0718727 -0.0958064 -0.119752 8.78995e-17 4.54415e-17 2.00364e-17 2.80003e-17 5.70204e-18 -1.51592e-17 -4.5879e-17 -8.75626e-17 -9.06986e-17 -7.34988e-17 -4.06273e-17 -0.119752 -0.0958064 -0.0718727 -0.0479298 -0.0239704 1.46675e-17 0.0239704 0.0479298 0.0718727 0.0958064 0.119752 -0.239487 -0.19161 -0.143756 -0.095871 -0.0479465 4.52329e-17 0.0479465 0.095871 0.143756 0.19161 0.239487 -0.359175 -0.287415 -0.215667 -0.143831 -0.0719292 8.29924e-17 0.0719292 0.143831 0.215667 0.287415 0.359175 -0.478742 -0.383256 -0.28762 -0.191799 -0.0959137 1.06757e-16 0.0959137 0.191799 0.28762 0.383256 0.478742 -0.598051 -0.479209 -0.35955 -0.239758 -0.119892 1.10056e-16 0.119892 0.239758 0.35955 0.479209 0.598051 
</DataArray>
<DataArray Name="Warping_Z" format="ascii" type="Float64">
0 0 0 0 0 0 0 0 0 0 0 0 0 0 0 0 0 0 0 0 0 0 0 0 0 0 0 0 0 0 0 0 0 0 0 0 0 0 0 0 0 0 0 0 0 0 0 0 0 0 0 0 0 0 0 0 0 0 0 0 0 0 0 0 0 0 0 0 0 0 0 0 0 0 0 0 0 0 0 0 0 0 0 0 0 0 0 0 0 0 0 0 0 0 0 0 0 0 0 0 0 0 0 0 0 0 0 0 0 0 0 0 0 0 0 0 0 0 0 0 0 
</DataArray>
</PointData>
<CellData>
<DataArray Name="MaterialId" format="ascii" type="Float64">
1 1 1 1 1 1 1 1 1 1 1 1 1 1 1 1 1 1 1 1 1 1 1 1 1 1 1 1 1 1 1 1 1 1 1 1 1 1 1 1 1 1 1 1 1 1 1 1 1 1 1 1 1 1 1 1 1 1 1 1 1 1 1 1 1 1 1 1 1 1 1 1 1 1 1 1 1 1 1 1 1 1 1 1 1 1 1 1 1 1 1 1 1 1 1 1 1 1 1 1 
</DataArray>
<DataArray Name="FiberAngle" format="ascii" type="Float64">
0 0 0 0 0 0 0 0 0 0 0 0 0 0 0 0 0 0 0 0 0 0 0 0 0 0 0 0 0 0 0 0 0 0 0 0 0 0 0 0 0 0 0 0 0 0 0 0 0 0 0 0 0 0 0 0 0 0 0 0 0 0 0 0 0 0 0 0 0 0 0 0 0 0 0 0 0 0 0 0 0 0 0 0 0 0 0 0 0 0 0 0 0 0 0 0 0 0 0 0 
</DataArray>
<DataArray Name="Strain_11" format="ascii" type="Float64">
-10.8051 -8.40367 -6.00363 -3.60221 -1.20074 1.20074 3.60221 6.00363 8.40367 10.8051 -10.7967 -8.39288 -5.99611 -3.59831 -1.19953 1.19953 3.59831 5.99611 8.39288 10.7967 -10.7971 -8.39445 -5.99438 -3.59655 -1.19887 1.19887 3.59655 5.99438 8.39445 10.7971 -10.7971 -8.39592 -5.99543 -3.59658 -1.19877 1.19877 3.59658 5.99543 8.39592 10.7971 -10.797 -8.39654 -5.99621 -3.597 -1.19886 1.19886 3.597 5.99621 8.39654 10.797 -10.797 -8.39654 -5.99621 -3.597 -1.19886 1.19886 3.597 5.99621 8.39654 10.797 -10.7971 -8.39592 -5.99543 -3.59658 -1.19877 1.19877 3.59658 5.99543 8.39592 10.7971 -10.7971 -8.39445 -5.99438 -3.59655 -1.19887 1.19887 3.59655 5.99438 8.39445 10.7971 -10.7967 -8.39288 -5.99611 -3.59831 -1.19953 1.19953 3.59831 5.99611 8.39288 10.7967 -10.8051 -8.40367 -6.00363 -3.60221 -1.20074 1.20074 3.60221 6.00363 8.40367 10.8051 
</DataArray>
<DataArray Name="Strain_22" format="ascii" type="Float64">
-10.7631 -8.39419 -5.99446 -3.59685 -1.19892 1.19892 3.59685 5.99446 8.39419 10.7631 -10.7704 -8.38967 -5.99601 -3.59761 -1.19922 1.19922 3.59761 5.99601 8.38967 10.7704 -10.7746 -8.38578 -5.99356 -3.59715 -1.19914 1.19914 3.59715 5.99356 8.38578 10.7746 -10.777 -8.38437 -5.99123 -3.59587 -1.1988 1.1988 3.59587 5.99123 8.38437 10.777 -10.7779 -8.38395 -5.99013 -3.59501 -1.19852 1.19852 3.59501 5.99013 8.38395 10.7779 -10.7779 -8.38395 -5.99013 -3.59501 -1.19852 1.19852 3.59501 5.99013 8.38395 10.7779 -10.777 -8.38437 -5.99123 -3.59587 -1.1988 1.1988 3.59587 5.99123 8.38437 10.777 -10.7746 -8.38578 -5.99356 -3.59715 -1.19914 1.19914 3.59715 5.99356 8.38578 10.7746 -10.7704 -8.38967 -5.99601 -3.59761 -1.19922 1.19922 3.59761 5.99601 8.38967 10.7704 -10.7631 -8.39419 -5.99446 -3.59685 -1.19892 1.19892 3.59685 5.99446 8.39419 10.7631 
</DataArray>
<DataArray Name="Strain_12" format="ascii" type="Float64">
0.021706 -0.00651433 -0.00570583 -0.0049232 -0.00456261 -0.00456261 -0.0049232 -0.00570583 -0.00651433 0.021706 0.0148155 0.00687952 -0.00508639 -0.00792354 -0.00868505 -0.00868505 -0.00792354 -0.00508639 0.00687952 0.0148155 0.00641172 0.00723303 -0.000185339 -0.00570385 -0.00775556 -0.00775556 -0.00570385 -0.000185339 0.00723303 0.00641172 0.00266242 0.00394604 0.000887345 -0.0027626 -0.00473321 -0.00473321 -0.0027626 0.000887345 0.00394604 0.00266242 0.00072674 0.00119792 0.000386285 -0.000788578 -0.00152237 -0.00152237 -0.000788578 0.000386285 0.00119792 0.00072674 -0.00072674 -0.00119792 -0.000386285 0.000788578 0.00152237 0.00152237 0.000788578 -0.000386285 -0.00119792 -0.00072674 -0.00266242 -0.00394604 -0.000887345 0.0027626 0.00473321 0.00473321 0.0027626 -0.000887345 -0.00394604 -0.00266242 -0.00641172 -0.00723303 0.000185339 0.00570385 0.00775556 0.00775556 0.00570385 0.000185339 -0.00723303 -0.00641172 -0.0148155 -0.00687952 0.00508639 0.00792354 0.00868505 0.00868505 0.00792354 0.00508639 -0.00687952 -0.0148155 -0.021706 0.00651433 0.00570583 0.0049232 0.00456261 0.00456261 0.0049232 0.00570583 0.00651433 -0.021706 
</DataArray>
<DataArray Name="Strain_13" format="ascii" type="Float64">
0 0 0 0 0 0 0 0 0 0 0 0 0 0 0 0 0 0 0 0 0 0 0 0 0 0 0 0 0 0 0 0 0 0 0 0 0 0 0 0 0 0 0 0 0 0 0 0 0 0 0 0 0 0 0 0 0 0 0 0 0 0 0 0 0 0 0 0 0 0 0 0 0 0 0 0 0 0 0 0 0 0 0 0 0 0 0 0 0 0 0 0 0 0 0 0 0 0 0 0 
</DataArray>
<DataArray Name="Strain_23" format="ascii" type="Float64">
0 0 0 0 0 0 0 0 0 0 0 0 0 0 0 0 0 0 0 0 0 0 0 0 0 0 0 0 0 0 0 0 0 0 0 0 0 0 0 0 0 0 0 0 0 0 0 0 0 0 0 0 0 0 0 0 0 0 0 0 0 0 0 0 0 0 0 0 0 0 0 0 0 0 0 0 0 0 0 0 0 0 0 0 0 0 0 0 0 0 0 0 0 0 0 0 0 0 0 0 
</DataArray>
<DataArray Name="Strain_33" format="ascii" type="Float64">
0.045 0.035 0.025 0.015 0.005 -0.005 -0.015 -0.025 -0.035 -0.045 0.045 0.035 0.025 0.015 0.005 -0.005 -0.015 -0.025 -0.035 -0.045 0.045 0.035 0.025 0.015 0.005 -0.005 -0.015 -0.025 -0.035 -0.045 0.045 0.035 0.025 0.015 0.005 -0.005 -0.015 -0.025 -0.035 -0.045 0.045 0.035 0.025 0.015 0.005 -0.005 -0.015 -0.025 -0.035 -0.045 0.045 0.035 0.025 0.015 0.005 -0.005 -0.015 -0.025 -0.035 -0.045 0.045 0.035 0.025 0.015 0.005 -0.005 -0.015 -0.025 -0.035 -0.045 0.045 0.035 0.025 0.015 0.005 -0.005 -0.015 -0.025 -0.035 -0.045 0.045 0.035 0.025 0.015 0.005 -0.005 -0.015 -0.025 -0.035 -0.045 0.045 0.035 0.025 0.015 0.005 -0.005 -0.015 -0.025 -0.035 -0.045 
</DataArray>
<DataArray Name="Stress_11" format="ascii" type="Float64">
-1498.29 -1165.94 -832.889 -499.741 -166.58 166.58 499.741 832.889 1165.94 1498.29 -1497.56 -1164.62 -832.096 -499.329 -166.454 166.454 499.329 832.096 1164.62 1497.56 -1497.73 -1164.68 -831.835 -499.121 -166.378 166.378 499.121 831.835 1164.68 1497.73 -1497.78 -1164.81 -831.887 -499.088 -166.358 166.358 499.088 831.887 1164.81 1497.78 -1497.8 -1164.86 -831.943 -499.111 -166.36 166.36 499.111 831.943 1164.86 1497.8 -1497.8 -1164.86 -831.943 -499.111 -166.36 166.36 499.111 831.943 1164.86 1497.8 -1497.78 -1164.81 -831.887 -499.088 -166.358 166.358 499.088 831.887 1164.81 1497.78 -1497.73 -1164.68 -831.835 -499.121 -166.378 166.378 499.121 831.835 1164.68 1497.73 -1497.56 -1164.62 -832.096 -499.329 -166.454 166.454 499.329 832.096 1164.62 1497.56 -1498.29 -1165.94 -832.889 -499.741 -166.58 166.58 499.741 832.889 1165.94 1498.29 
</DataArray>
<DataArray Name="Stress_22" format="ascii" type="Float64">
-1494.79 -1165.15 -832.124 -499.295 -166.429 166.429 499.295 832.124 1165.15 1494.79 -1495.37 -1164.35 -832.087 -499.271 -166.428 166.428 499.271 832.087 1164.35 1495.37 -1495.85 -1163.96 -831.768 -499.171 -166.401 166.401 499.171 831.768 1163.96 1495.85 -1496.11 -1163.84 -831.538 -499.029 -166.361 166.361 499.029 831.538 1163.84 1496.11 -1496.21 -1163.82 -831.436 -498.945 -166.332 166.332 498.945 831.436 1163.82 1496.21 -1496.21 -1163.82 -831.436 -498.945 -166.332 166.332 498.945 831.436 1163.82 1496.21 -1496.11 -1163.84 -831.538 -499.029 -166.361 166.361 499.029 831.538 1163.84 1496.11 -1495.85 -1163.96 -831.768 -499.171 -166.401 166.401 499.171 831.768 1163.96 1495.85 -1495.37 -1164.35 -832.087 -499.271 -166.428 166.428 499.271 832.087 1164.35 1495.37 -1494.79 -1165.15 -832.124 -499.295 -166.429 166.429 499.295 832.124 1165.15 1494.79 
</DataArray>
<DataArray Name="Stress_12" format="ascii" type="Float64">
0.904416 -0.271431 -0.237743 -0.205133 -0.190109 -0.190109 -0.205133 -0.237743 -0.271431 0.904416 0.617311 0.286647 -0.211933 -0.330148 -0.361877 -0.361877 -0.330148 -0.211933 0.286647 0.617311 0.267155 0.301376 -0.00772248 -0.237661 -0.323148 -0.323148 -0.237661 -0.00772248 0.301376 0.267155 0.110934 0.164418 0.0369727 -0.115108 -0.197217 -0.197217 -0.115108 0.0369727 0.164418 0.110934 0.0302808 0.0499132 0.0160952 -0.0328574 -0.0634319 -0.0634319 -0.0328574 0.0160952 0.0499132 0.0302808 -0.0302808 -0.0499132 -0.0160952 0.0328574 0.0634319 0.0634319 0.0328574 -0.0160952 -0.0499132 -0.0302808 -0.110934 -0.164418 -0.0369727 0.115108 0.197217 0.197217 0.115108 -0.0369727 -0.164418 -0.110934 -0.267155 -0.301376 0.00772248 0.237661 0.323148 0.323148 0.237661 0.00772248 -0.301376 -0.267155 -0.617311 -0.286647 0.211933 0.330148 0.361877 0.361877 0.330148 0.211933 -0.286647 -0.617311 -0.904416 0.271431 0.237743 0.205133 0.190109 0.190109 0.205133 0.237743 0.271431 -0.904416 
</DataArray>
<DataArray Name="Stress_13" format="ascii" type="Float64">
0 0 0 0 0 0 0 0 0 0 0 0 0 0 0 0 0 0 0 0 0 0 0 0 0 0 0 0 0 0 0 0 0 0 0 0 0 0 0 0 0 0 0 0 0 0 0 0 0 0 0 0 0 0 0 0 0 0 0 0 0 0 0 0 0 0 0 0 0 0 0 0 0 0 0 0 0 0 0 0 0 0 0 0 0 0 0 0 0 0 0 0 0 0 0 0 0 0 0 0 
</DataArray>
<DataArray Name="Stress_23" format="ascii" type="Float64">
0 0 0 0 0 0 0 0 0 0 0 0 0 0 0 0 0 0 0 0 0 0 0 0 0 0 0 0 0 0 0 0 0 0 0 0 0 0 0 0 0 0 0 0 0 0 0 0 0 0 0 0 0 0 0 0 0 0 0 0 0 0 0 0 0 0 0 0 0 0 0 0 0 0 0 0 0 0 0 0 0 0 0 0 0 0 0 0 0 0 0 0 0 0 0 0 0 0 0 0 
</DataArray>
<DataArray Name="Stress_33" format="ascii" type="Float64">
-594.116 -462.718 -330.503 -198.307 -66.1017 66.1017 198.307 330.503 462.718 594.116 -594.087 -462.293 -330.337 -198.22 -66.0764 66.0764 198.22 330.337 462.293 594.087 -594.216 -462.229 -330.221 -198.158 -66.0558 66.0558 198.158 330.221 462.229 594.216 -594.278 -462.23 -330.185 -198.123 -66.0437 66.0437 198.123 330.185 462.23 594.278 -594.304 -462.236 -330.176 -198.111 -66.0384 66.0384 198.111 330.176 462.236 594.304 -594.304 -462.236 -330.176 -198.111 -66.0384 66.0384 198.111 330.176 462.236 594.304 -594.278 -462.23 -330.185 -198.123 -66.0437 66.0437 198.123 330.185 462.23 594.278 -594.216 -462.229 -330.221 -198.158 -66.0558 66.0558 198.158 330.221 462.229 594.216 -594.087 -462.293 -330.337 -198.22 -66.0764 66.0764 198.22 330.337 462.293 594.087 -594.116 -462.718 -330.503 -198.307 -66.1017 66.1017 198.307 330.503 462.718 594.116 
</DataArray>
</CellData>
<Points>
<DataArray NumberOfComponents="3" format="ascii" type="Float64">
-0.05 -0.05 0 -0.04 -0.05 0 -0.03 -0.05 0 -0.02 -0.05 0 -0.01 -0.05 0 0 -0.05 0 0.01 -0.05 0 0.02 -0.05 0 0.03 -0.05 0 0.04 -0.05 0 0.05 -0.05 0 -0.05 -0.04 0 -0.04 -0.04 0 -0.03 -0.04 0 -0.02 -0.04 0 -0.01 -0.04 0 0 -0.04 0 0.01 -0.04 0 0.02 -0.04 0 0.03 -0.04 0 0.04 -0.04 0 0.05 -0.04 0 -0.05 -0.03 0 -0.04 -0.03 0 -0.03 -0.03 0 -0.02 -0.03 0 -0.01 -0.03 0 0 -0.03 0 0.01 -0.03 0 0.02 -0.03 0 0.03 -0.03 0 0.04 -0.03 0 0.05 -0.03 0 -0.05 -0.02 0 -0.04 -0.02 0 -0.03 -0.02 0 -0.02 -0.02 0 -0.01 -0.02 0 0 -0.02 0 0.01 -0.02 0 0.02 -0.02 0 0.03 -0.02 0 0.04 -0.02 0 0.05 -0.02 0 -0.05 -0.01 0 -0.04 -0.01 0 -0.03 -0.01 0 -0.02 -0.01 0 -0.01 -0.01 0 0 -0.01 0 0.01 -0.01 0 0.02 -0.01 0 0.03 -0.01 0 0.04 -0.01 0 0.05 -0.01 0 -0.05 0 0 -0.04 0 0 -0.03 0 0 -0.02 0 0 -0.01 0 0 0 0 0 0.01 0 0 0.02 0 0 0.03 0 0 0.04 0 0 0.05 0 0 -0.05 0.01 0 -0.04 0.01 0 -0.03 0.01 0 -0.02 0.01 0 -0.01 0.01 0 0 0.01 0 0.01 0.01 0 0.02 0.01 0 0.03 0.01 0 0.04 0.01 0 0.05 0.01 0 -0.05 0.02 0 -0.04 0.02 0 -0.03 0.02 0 -0.02 0.02 0 -0.01 0.02 0 0 0.02 0 0.01 0.02 0 0.02 0.02 0 0.03 0.02 0 0.04 0.02 0 0.05 0.02 0 -0.05 0.03 0 -0.04 0.03 0 -0.03 0.03 0 -0.02 0.03 0 -0.01 0.03 0 0 0.03 0 0.01 0.03 0 0.02 0.03 0 0.03 0.03 0 0.04 0.03 0 0.05 0.03 0 -0.05 0.04 0 -0.04 0.04 0 -0.03 0.04 0 -0.02 0.04 0 -0.01 0.04 0 0 0.04 0 0.01 0.04 0 0.02 0.04 0 0.03 0.04 0 0.04 0.04 0 0.05 0.04 0 -0.05 0.05 0 -0.04 0.05 0 -0.03 0.05 0 -0.02 0.05 0 -0.01 0.05 0 0 0.05 0 0.01 0.05 0 0.02 0.05 0 0.03 0.05 0 0.04 0.05 0 0.05 0.05 0 
</DataArray>
</Points>
<Cells>
<DataArray Name="connectivity" format="ascii" type="Int64">
0 1 12 11 1 2 13 12 2 3 14 13 3 4 15 14 4 5 16 15 5 6 17 16 6 7 18 17 7 8 19 18 8 9 20 19 9 10 21 20 11 12 23 22 12 13 24 23 13 14 25 24 14 15 26 25 15 16 27 26 16 17 28 27 17 18 29 28 18 19 30 29 19 20 31 30 20 21 32 31 22 23 34 33 23 24 35 34 24 25 36 35 25 26 37 36 26 27 38 37 27 28 39 38 28 29 40 39 29 30 41 40 30 31 42 41 31 32 43 42 33 34 45 44 34 35 46 45 35 36 47 46 36 37 48 47 37 38 49 48 38 39 50 49 39 40 51 50 40 41 52 51 41 42 53 52 42 43 54 53 44 45 56 55 45 46 57 56 46 47 58 57 47 48 59 58 48 49 60 59 49 50 61 60 50 51 62 61 51 52 63 62 52 53 64 63 53 54 65 64 55 56 67 66 56 57 68 67 57 58 69 68 58 59 70 69 59 60 71 70 60 61 72 71 61 62 73 72 62 63 74 73 63 64 75 74 64 65 76 75 66 67 78 77 67 68 79 78 68 69 80 79 69 70 81 80 70 71 82 81 71 72 83 82 72 73 84 83 73 74 85 84 74 75 86 85 75 76 87 86 77 78 89 88 78 79 90 89 79 80 91 90 80 81 92 91 81 82 93 92 82 83 94 93 83 84 95 94 84 85 96 95 85 86 97 96 86 87 98 97 88 89 100 99 89 90 101 100 90 91 102 101 91 92 103 102 92 93 104 103 93 94 105 104 94 95 106 105 95 96 107 106 96 97 108 107 97 98 109 108 99 100 111 110 100 101 112 111 101 102 113 112 102 103 114 113 103 104 115 114 104 105 116 115 105 106 117 116 106 107 118 117 107 108 119 118 108 109 120 119 
</DataArray>
<DataArray Name="offsets" format="ascii" type="Int64">
4 8 12 16 20 24 28 32 36 40 44 48 52 56 60 64 68 72 76 80 84 88 92 96 100 104 108 112 116 120 124 128 132 136 140 144 148 152 156 160 164 168 172 176 180 184 188 192 196 200 204 208 212 216 220 224 228 232 236 240 244 248 252 256 260 264 268 272 276 280 284 288 292 296 300 304 308 312 316 320 324 328 332 336 340 344 348 352 356 360 364 368 372 376 380 384 388 392 396 400 
</DataArray>
<DataArray Name="types" format="ascii" type="Int8">
9 9 9 9 9 9 9 9 9 9 9 9 9 9 9 9 9 9 9 9 9 9 9 9 9 9 9 9 9 9 9 9 9 9 9 9 9 9 9 9 9 9 9 9 9 9 9 9 9 9 9 9 9 9 9 9 9 9 9 9 9 9 9 9 9 9 9 9 9 9 9 9 9 9 9 9 9 9 9 9 9 9 9 9 9 9 9 9 9 9 9 9 9 9 9 9 9 9 9 9 
</DataArray>
</Cells>
</Piece>
</UnstructuredGrid>
</VTKFile>
