<?xml version="1.0"?>
<VTKFile byte_order="LittleEndian" type="UnstructuredGrid" version="0.1">
<UnstructuredGrid>
<Piece NumberOfCells="100" NumberOfPoints="121">
<PointData>
<DataArray Name="Warping_X" format="ascii" type="Float64">
0.01 0.008 0.006 0.004 0.002 -7.70058e-18 -0.002 -0.004 -0.006 -0.008 -0.01 0.01 0.008 0.006 0.004 0.002 -9.95718e-18 -0.002 -0.004 -0.006 -0.008 -0.01 0.01 0.008 0.006 0.004 0.002 -8.57492e-18 -0.002 -0.004 -0.006 -0.008 -0.01 0.01 0.008 0.006 0.004 0.002 -5.86267e-18 -0.002 -0.004 -0.006 -0.008 -0.01 0.01 0.008 0.006 0.004 0.002 -2.73727e-18 -0.002 -0.004 -0.006 -0.008 -0.01 0.01 0.008 0.006 0.004 0.002 8.44836e-20 -0.002 -0.004 -0.006 -0.008 -0.01 0.01 0.008 0.006 0.004 0.002 2.02546e-18 -0.002 -0.004 -0.006 -0.008 -0.01 0.01 0.008 0.006 0.004 0.002 3.57206e-18 -0.002 -0.004 -0.006 -0.008 -0.01 0.01 0.008 0.006 0.004 0.002 5.07732e-18 -0.002 -0.004 -0.006 -0.008 -0.01 0.01 0.008 0.006 0.004 0.002 4.83056e-18 -0.002 -0.004 -0.006 -0.008 -0.01 0.01 0.008 0.006 0.004 0.002 1.1972e-18 -0.002 -0.004 -0.006 -0.008 -0.01 
</DataArray>
<DataArray Name="Warping_Y" format="ascii" type="Float64">
0.01 0.01 0.01 0.01 0.01 0.01 0.01 0.01 0.01 0.01 0.01 0.008 0.008 0.008 0.008 0.008 0.008 0.008 0.008 0.008 0.008 0.008 0.006 0.006 0.006 0.006 0.006 0.006 0.006 0.006 0.006 0.006 0.006 0.004 0.004 0.004 0.004 0.004 0.004 0.004 0.004 0.004 0.004 0.004 0.002 0.002 0.002 0.002 0.002 0.002 0.002 0.002 0.002 0.002 0.002 -9.48621e-18 -1.04304e-17 -1.0003e-17 -7.82374e-18 -6.12469e-18 -3.32339e-18 -1.63974e-18 4.71009e-19 1.58045e-18 1.69265e-18 1.03032e-18 -0.002 -0.002 -0.002 -0.002 -0.002 -0.002 -0.002 -0.002 -0.002 -0.002 -0.002 -0.004 -0.004 -0.004 -0.004 -0.004 -0.004 -0.004 -0.004 -0.004 -0.004 -0.004 -0.006 -0.006 -0.006 -0.006 -0.006 -0.006 -0.006 -0.006 -0.006 -0.006 -0.006 -0.008 -0.008 -0.008 -0.008 -0.008 -0.008 -0.008 -0.008 -0.008 -0.008 -0.008 -0.01 -0.01 -0.01 -0.01 -0.01 -0.01 -0.01 -0.01 -0.01 -0.01 -0.01 
</DataArray>
<DataArray Name="Warping_Z" format="ascii" type="Float64">
0 0 0 0 0 0 0 0 0 0 0 0 0 0 0 0 0 0 0 0 0 0 0 0 0 0 0 0 0 0 0 0 0 0 0 0 0 0 0 0 0 0 0 0 0 0 0 0 0 0 0 0 0 0 0 0 0 0 0 0 0 0 0 0 0 0 0 0 0 0 0 0 0 0 0 0 0 0 0 0 0 0 0 0 0 0 0 0 0 0 0 0 0 0 0 0 0 0 0 0 0 0 0 0 0 0 0 0 0 0 0 0 0 0 0 0 0 0 0 0 0 
</DataArray>
</PointData>
<CellData>
<DataArray Name="MaterialId" format="ascii" type="Float64">
1 1 1 1 1 1 1 1 1 1 1 1 1 1 1 1 1 1 1 1 1 1 1 1 1 1 1 1 1 1 1 1 1 1 1 1 1 1 1 1 1 1 1 1 1 1 1 1 1 1 1 1 1 1 1 1 1 1 1 1 1 1 1 1 1 1 1 1 1 1 1 1 1 1 1 1 1 1 1 1 1 1 1 1 1 1 1 1 1 1 1 1 1 1 1 1 1 1 1 1 
</DataArray>
<DataArray Name="FiberAngle" format="ascii" type="Float64">
0 0 0 0 0 0 0 0 0 0 0 0 0 0 0 0 0 0 0 0 0 0 0 0 0 0 0 0 0 0 0 0 0 0 0 0 0 0 0 0 0 0 0 0 0 0 0 0 0 0 0 0 0 0 0 0 0 0 0 0 0 0 0 0 0 0 0 0 0 0 0 0 0 0 0 0 0 0 0 0 0 0 0 0 0 0 0 0 0 0 0 0 0 0 0 0 0 0 0 0 
</DataArray>
<DataArray Name="Strain_11" format="ascii" type="Float64">
-0.2 -0.2 -0.2 -0.2 -0.2 -0.2 -0.2 -0.2 -0.2 -0.2 -0.2 -0.2 -0.2 -0.2 -0.2 -0.2 -0.2 -0.2 -0.2 -0.2 -0.2 -0.2 -0.2 -0.2 -0.2 -0.2 -0.2 -0.2 -0.2 -0.2 -0.2 -0.2 -0.2 -0.2 -0.2 -0.2 -0.2 -0.2 -0.2 -0.2 -0.2 -0.2 -0.2 -0.2 -0.2 -0.2 -0.2 -0.2 -0.2 -0.2 -0.2 -0.2 -0.2 -0.2 -0.2 -0.2 -0.2 -0.2 -0.2 -0.2 -0.2 -0.2 -0.2 -0.2 -0.2 -0.2 -0.2 -0.2 -0.2 -0.2 -0.2 -0.2 -0.2 -0.2 -0.2 -0.2 -0.2 -0.2 -0.2 -0.2 -0.2 -0.2 -0.2 -0.2 -0.2 -0.2 -0.2 -0.2 -0.2 -0.2 -0.2 -0.2 -0.2 -0.2 -0.2 -0.2 -0.2 -0.2 -0.2 -0.2 
</DataArray>
<DataArray Name="Strain_22" format="ascii" type="Float64">
-0.2 -0.2 -0.2 -0.2 -0.2 -0.2 -0.2 -0.2 -0.2 -0.2 -0.2 -0.2 -0.2 -0.2 -0.2 -0.2 -0.2 -0.2 -0.2 -0.2 -0.2 -0.2 -0.2 -0.2 -0.2 -0.2 -0.2 -0.2 -0.2 -0.2 -0.2 -0.2 -0.2 -0.2 -0.2 -0.2 -0.2 -0.2 -0.2 -0.2 -0.2 -0.2 -0.2 -0.2 -0.2 -0.2 -0.2 -0.2 -0.2 -0.2 -0.2 -0.2 -0.2 -0.2 -0.2 -0.2 -0.2 -0.2 -0.2 -0.2 -0.2 -0.2 -0.2 -0.2 -0.2 -0.2 -0.2 -0.2 -0.2 -0.2 -0.2 -0.2 -0.2 -0.2 -0.2 -0.2 -0.2 -0.2 -0.2 -0.2 -0.2 -0.2 -0.2 -0.2 -0.2 -0.2 -0.2 -0.2 -0.2 -0.2 -0.2 -0.2 -0.2 -0.2 -0.2 -0.2 -0.2 -0.2 -0.2 -0.2 
</DataArray>
<DataArray Name="Strain_12" format="ascii" type="Float64">
-3.17857e-16 -3.33622e-17 1.61732e-16 6.93889e-17 -2.39392e-16 4.51028e-16 2.44998e-16 -1.52101e-17 5.98077e-16 1.17406e-17 -5.78398e-16 -4.20497e-18 2.99108e-16 3.22659e-16 2.60209e-16 6.48787e-16 7.34524e-16 3.07782e-16 3.37536e-16 -6.31856e-17 -1.07955e-16 2.56337e-16 6.57863e-16 4.89192e-16 3.31332e-16 6.05418e-16 7.51538e-16 3.95919e-16 3.2746e-16 3.3093e-16 -4.56371e-17 4.79117e-16 6.58862e-16 4.95597e-16 5.06005e-16 5.28556e-16 7.60343e-16 4.63039e-16 1.97224e-16 1.43448e-16 -8.76011e-17 1.35608e-16 3.4576e-16 4.18276e-16 5.28279e-16 4.64842e-16 5.55566e-16 3.84776e-16 1.12061e-16 2.59648e-16 -2.93515e-18 2.56406e-16 4.15466e-16 2.93168e-16 4.68375e-16 3.5822e-16 4.31946e-16 2.82892e-16 2.0263e-16 6.38517e-17 2.82094e-16 8.43353e-17 2.27249e-16 3.19189e-16 4.23273e-16 3.20924e-16 4.28477e-16 2.28151e-17 -7.87287e-17 -2.76487e-16 -4.08978e-17 -4.36415e-16 3.77434e-16 6.06154e-16 4.88193e-16 3.1472e-16 4.24272e-16 1.26163e-16 9.09411e-17 2.14107e-16 4.56635e-16 2.98928e-17 4.28074e-16 3.40006e-16 4.19803e-16 3.81639e-16 5.66852e-16 1.95621e-16 2.64233e-17 3.33622e-17 2.1344e-16 -4.04121e-16 1.5779e-16 -8.67362e-17 2.46331e-16 9.71445e-17 6.05349e-16 -2.60902e-17 -5.02376e-17 1.5446e-16 
</DataArray>
<DataArray Name="Strain_13" format="ascii" type="Float64">
0 0 0 0 0 0 0 0 0 0 0 0 0 0 0 0 0 0 0 0 0 0 0 0 0 0 0 0 0 0 0 0 0 0 0 0 0 0 0 0 0 0 0 0 0 0 0 0 0 0 0 0 0 0 0 0 0 0 0 0 0 0 0 0 0 0 0 0 0 0 0 0 0 0 0 0 0 0 0 0 0 0 0 0 0 0 0 0 0 0 0 0 0 0 0 0 0 0 0 0 
</DataArray>
<DataArray Name="Strain_23" format="ascii" type="Float64">
0 0 0 0 0 0 0 0 0 0 0 0 0 0 0 0 0 0 0 0 0 0 0 0 0 0 0 0 0 0 0 0 0 0 0 0 0 0 0 0 0 0 0 0 0 0 0 0 0 0 0 0 0 0 0 0 0 0 0 0 0 0 0 0 0 0 0 0 0 0 0 0 0 0 0 0 0 0 0 0 0 0 0 0 0 0 0 0 0 0 0 0 0 0 0 0 0 0 0 0 
</DataArray>
<DataArray Name="Strain_33" format="ascii" type="Float64">
1 1 1 1 1 1 1 1 1 1 1 1 1 1 1 1 1 1 1 1 1 1 1 1 1 1 1 1 1 1 1 1 1 1 1 1 1 1 1 1 1 1 1 1 1 1 1 1 1 1 1 1 1 1 1 1 1 1 1 1 1 1 1 1 1 1 1 1 1 1 1 1 1 1 1 1 1 1 1 1 1 1 1 1 1 1 1 1 1 1 1 1 1 1 1 1 1 1 1 1 
</DataArray>
<DataArray Name="Stress_11" format="ascii" type="Float64">
-2.4869e-14 -2.84217e-14 -3.55271e-14 -3.19744e-14 -1.77636e-14 -2.4869e-14 -3.90799e-14 -2.13163e-14 -5.32907e-14 -3.90799e-14 -2.84217e-14 -4.9738e-14 -2.84217e-14 -3.55271e-14 -2.84217e-14 -2.84217e-14 -2.84217e-14 -2.13163e-14 -2.4869e-14 1.42109e-14 -1.42109e-14 -3.90799e-14 -3.55271e-14 -2.4869e-14 -3.55271e-14 -2.4869e-14 -3.55271e-14 -7.10543e-15 -1.77636e-14 2.13163e-14 -7.10543e-15 -2.84217e-14 -4.26326e-14 -2.13163e-14 -2.84217e-14 -2.13163e-14 -2.13163e-14 -1.42109e-14 0 0 3.55271e-15 -3.55271e-14 -2.84217e-14 -2.4869e-14 -2.4869e-14 -1.77636e-14 -7.10543e-15 -2.13163e-14 1.06581e-14 1.42109e-14 7.10543e-15 -2.84217e-14 -2.84217e-14 -2.13163e-14 -2.13163e-14 -1.77636e-14 -1.06581e-14 -1.77636e-14 0 2.84217e-14 3.55271e-15 -3.55271e-14 -3.90799e-14 -1.42109e-14 -1.77636e-14 -7.10543e-15 -1.42109e-14 -1.06581e-14 1.42109e-14 0 -7.10543e-15 -1.77636e-14 -2.13163e-14 -1.06581e-14 -7.10543e-15 -1.06581e-14 -2.84217e-14 -7.10543e-15 -3.55271e-15 3.19744e-14 1.42109e-14 0 -1.42109e-14 -1.77636e-14 -1.77636e-14 -1.06581e-14 -1.77636e-14 1.42109e-14 -3.55271e-15 5.68434e-14 1.42109e-14 3.55271e-15 -2.13163e-14 -1.77636e-14 -2.13163e-14 -1.06581e-14 7.10543e-15 2.84217e-14 3.55271e-14 4.26326e-14 
</DataArray>
<DataArray Name="Stress_22" format="ascii" type="Float64">
-1.42109e-14 -2.13163e-14 -1.42109e-14 -7.10543e-15 -1.06581e-14 -2.84217e-14 -2.4869e-14 3.55271e-15 -4.26326e-14 -4.61853e-14 -3.55271e-14 -2.84217e-14 -2.13163e-14 -3.90799e-14 -3.90799e-14 -3.55271e-14 -4.26326e-14 -3.55271e-14 -6.03961e-14 -3.55271e-14 -1.77636e-14 -2.4869e-14 -3.19744e-14 -3.90799e-14 -4.26326e-14 -3.90799e-14 -6.39488e-14 -4.61853e-14 -4.9738e-14 -3.90799e-14 -3.19744e-14 -3.90799e-14 -3.19744e-14 -2.84217e-14 -3.55271e-14 -2.13163e-14 -4.61853e-14 -4.9738e-14 -3.55271e-14 -2.84217e-14 -2.84217e-14 -2.4869e-14 -2.13163e-14 -2.13163e-14 -2.13163e-14 -1.77636e-14 -1.42109e-14 -2.84217e-14 -1.77636e-14 -1.06581e-14 -1.42109e-14 -2.84217e-14 -2.4869e-14 -2.13163e-14 -1.42109e-14 -1.42109e-14 -1.42109e-14 -1.77636e-14 -1.06581e-14 0 -1.06581e-14 -1.42109e-14 -2.4869e-14 -1.42109e-14 -1.06581e-14 -7.10543e-15 0 -3.55271e-15 1.42109e-14 7.10543e-15 3.55271e-15 0 -1.42109e-14 0 0 3.55271e-15 3.55271e-15 2.13163e-14 2.84217e-14 1.42109e-14 1.06581e-14 1.42109e-14 3.55271e-15 -7.10543e-15 -1.77636e-14 1.77636e-14 3.55271e-14 4.61853e-14 0 -3.55271e-15 1.42109e-14 7.10543e-15 2.4869e-14 2.13163e-14 1.42109e-14 1.42109e-14 3.19744e-14 3.90799e-14 1.77636e-14 2.13163e-14 
</DataArray>
<DataArray Name="Stress_12" format="ascii" type="Float64">
-1.3244e-14 -1.39009e-15 6.73882e-15 2.89121e-15 -9.97466e-15 1.87928e-14 1.02083e-14 -6.33752e-16 2.49199e-14 4.89192e-16 -2.40999e-14 -1.75207e-16 1.24628e-14 1.34441e-14 1.0842e-14 2.70328e-14 3.06051e-14 1.28242e-14 1.4064e-14 -2.63273e-15 -4.49814e-15 1.06807e-14 2.74109e-14 2.0383e-14 1.38055e-14 2.52258e-14 3.13141e-14 1.64966e-14 1.36442e-14 1.37887e-14 -1.90155e-15 1.99632e-14 2.74526e-14 2.06499e-14 2.10835e-14 2.20232e-14 3.1681e-14 1.92933e-14 8.21767e-15 5.97699e-15 -3.65005e-15 5.65033e-15 1.44067e-14 1.74282e-14 2.20116e-14 1.93684e-14 2.31486e-14 1.60323e-14 4.6692e-15 1.08187e-14 -1.22298e-16 1.06836e-14 1.73111e-14 1.22153e-14 1.95156e-14 1.49258e-14 1.79978e-14 1.17872e-14 8.4429e-15 2.66049e-15 1.17539e-14 3.51397e-15 9.4687e-15 1.32995e-14 1.76364e-14 1.33718e-14 1.78532e-14 9.50628e-16 -3.28036e-15 -1.15203e-14 -1.70408e-15 -1.81839e-14 1.57264e-14 2.52564e-14 2.03414e-14 1.31134e-14 1.7678e-14 5.25679e-15 3.78921e-15 8.9211e-15 1.90264e-14 1.24553e-15 1.78364e-14 1.41669e-14 1.74918e-14 1.59016e-14 2.36188e-14 8.15089e-15 1.10097e-15 1.39009e-15 8.89335e-15 -1.68384e-14 6.5746e-15 -3.61401e-15 1.02638e-14 4.04769e-15 2.52229e-14 -1.08709e-15 -2.09323e-15 6.43582e-15 
</DataArray>
<DataArray Name="Stress_13" format="ascii" type="Float64">
0 0 0 0 0 0 0 0 0 0 0 0 0 0 0 0 0 0 0 0 0 0 0 0 0 0 0 0 0 0 0 0 0 0 0 0 0 0 0 0 0 0 0 0 0 0 0 0 0 0 0 0 0 0 0 0 0 0 0 0 0 0 0 0 0 0 0 0 0 0 0 0 0 0 0 0 0 0 0 0 0 0 0 0 0 0 0 0 0 0 0 0 0 0 0 0 0 0 0 0 
</DataArray>
<DataArray Name="Stress_23" format="ascii" type="Float64">
0 0 0 0 0 0 0 0 0 0 0 0 0 0 0 0 0 0 0 0 0 0 0 0 0 0 0 0 0 0 0 0 0 0 0 0 0 0 0 0 0 0 0 0 0 0 0 0 0 0 0 0 0 0 0 0 0 0 0 0 0 0 0 0 0 0 0 0 0 0 0 0 0 0 0 0 0 0 0 0 0 0 0 0 0 0 0 0 0 0 0 0 0 0 0 0 0 0 0 0 
</DataArray>
<DataArray Name="Stress_33" format="ascii" type="Float64">
100 100 100 100 100 100 100 100 100 100 100 100 100 100 100 100 100 100 100 100 100 100 100 100 100 100 100 100 100 100 100 100 100 100 100 100 100 100 100 100 100 100 100 100 100 100 100 100 100 100 100 100 100 100 100 100 100 100 100 100 100 100 100 100 100 100 100 100 100 100 100 100 100 100 100 100 100 100 100 100 100 100 100 100 100 100 100 100 100 100 100 100 100 100 100 100 100 100 100 100 
</DataArray>
</CellData>
<Points>
<DataArray NumberOfComponents="3" format="ascii" type="Float64">
-0.05 -0.05 0 -0.04 -0.05 0 -0.03 -0.05 0 -0.02 -0.05 0 -0.01 -0.05 0 0 -0.05 0 0.01 -0.05 0 0.02 -0.05 0 0.03 -0.05 0 0.04 -0.05 0 0.05 -0.05 0 -0.05 -0.04 0 -0.04 -0.04 0 -0.03 -0.04 0 -0.02 -0.04 0 -0.01 -0.04 0 0 -0.04 0 0.01 -0.04 0 0.02 -0.04 0 0.03 -0.04 0 0.04 -0.04 0 0.05 -0.04 0 -0.05 -0.03 0 -0.04 -0.03 0 -0.03 -0.03 0 -0.02 -0.03 0 -0.01 -0.03 0 0 -0.03 0 0.01 -0.03 0 0.02 -0.03 0 0.03 -0.03 0 0.04 -0.03 0 0.05 -0.03 0 -0.05 -0.02 0 -0.04 -0.02 0 -0.03 -0.02 0 -0.02 -0.02 0 -0.01 -0.02 0 0 -0.02 0 0.01 -0.02 0 0.02 -0.02 0 0.03 -0.02 0 0.04 -0.02 0 0.05 -0.02 0 -0.05 -0.01 0 -0.04 -0.01 0 -0.03 -0.01 0 -0.02 -0.01 0 -0.01 -0.01 0 0 -0.01 0 0.01 -0.01 0 0.02 -0.01 0 0.03 -0.01 0 0.04 -0.01 0 0.05 -0.01 0 -0.05 0 0 -0.04 0 0 -0.03 0 0 -0.02 0 0 -0.01 0 0 0 0 0 0.01 0 0 0.02 0 0 0.03 0 0 0.04 0 0 0.05 0 0 -0.05 0.01 0 -0.04 0.01 0 -0.03 0.01 0 -0.02 0.01 0 -0.01 0.01 0 0 0.01 0 0.01 0.01 0 0.02 0.01 0 0.03 0.01 0 0.04 0.01 0 0.05 0.01 0 -0.05 0.02 0 -0.04 0.02 0 -0.03 0.02 0 -0.02 0.02 0 -0.01 0.02 0 0 0.02 0 0.01 0.02 0 0.02 0.02 0 0.03 0.02 0 0.04 0.02 0 0.05 0.02 0 -0.05 0.03 0 -0.04 0.03 0 -0.03 0.03 0 -0.02 0.03 0 -0.01 0.03 0 0 0.03 0 0.01 0.03 0 0.02 0.03 0 0.03 0.03 0 0.04 0.03 0 0.05 0.03 0 -0.05 0.04 0 -0.04 0.04 0 -0.03 0.04 0 -0.02 0.04 0 -0.01 0.04 0 0 0.04 0 0.01 0.04 0 0.02 0.04 0 0.03 0.04 0 0.04 0.04 0 0.05 0.04 0 -0.05 0.05 0 -0.04 0.05 0 -0.03 0.05 0 -0.02 0.05 0 -0.01 0.05 0 0 0.05 0 0.01 0.05 0 0.02 0.05 0 0.03 0.05 0 0.04 0.05 0 0.05 0.05 0 
</DataArray>
</Points>
<Cells>
<DataArray Name="connectivity" format="ascii" type="Int64">
0 1 12 11 1 2 13 12 2 3 14 13 3 4 15 14 4 5 16 15 5 6 17 16 6 7 18 17 7 8 19 18 8 9 20 19 9 10 21 20 11 12 23 22 12 13 24 23 13 14 25 24 14 15 26 25 15 16 27 26 16 17 28 27 17 18 29 28 18 19 30 29 19 20 31 30 20 21 32 31 22 23 34 33 23 24 35 34 24 25 36 35 25 26 37 36 26 27 38 37 27 28 39 38 28 29 40 39 29 30 41 40 30 31 42 41 31 32 43 42 33 34 45 44 34 35 46 45 35 36 47 46 36 37 48 47 37 38 49 48 38 39 50 49 39 40 51 50 40 41 52 51 41 42 53 52 42 43 54 53 44 45 56 55 45 46 57 56 46 47 58 57 47 48 59 58 48 49 60 59 49 50 61 60 50 51 62 61 51 52 63 62 52 53 64 63 53 54 65 64 55 56 67 66 56 57 68 67 57 58 69 68 58 59 70 69 59 60 71 70 60 61 72 71 61 62 73 72 62 63 74 73 63 64 75 74 64 65 76 75 66 67 78 77 67 68 79 78 68 69 80 79 69 70 81 80 70 71 82 81 71 72 83 82 72 73 84 83 73 74 85 84 74 75 86 85 75 76 87 86 77 78 89 88 78 79 90 89 79 80 91 90 80 81 92 91 81 82 93 92 82 83 94 93 83 84 95 94 84 85 96 95 85 86 97 96 86 87 98 97 88 89 100 99 89 90 101 100 90 91 102 101 91 92 103 102 92 93 104 103 93 94 105 104 94 95 106 105 95 96 107 106 96 97 108 107 97 98 109 108 99 100 111 110 100 101 112 111 101 102 113 112 102 103 114 113 103 104 115 114 104 105 116 115 105 106 117 116 106 107 118 117 107 108 119 118 108 109 120 119 
</DataArray>
<DataArray Name="offsets" format="ascii" type="Int64">
4 8 12 16 20 24 28 32 36 40 44 48 52 56 60 64 68 72 76 80 84 88 92 96 100 104 108 112 116 120 124 128 132 136 140 144 148 152 156 160 164 168 172 176 180 184 188 192 196 200 204 208 212 216 220 224 228 232 236 240 244 248 252 256 260 264 268 272 276 280 284 288 292 296 300 304 308 312 316 320 324 328 332 336 340 344 348 352 356 360 364 368 372 376 380 384 388 392 396 400 
</DataArray>
<DataArray Name="types" format="ascii" type="Int8">
9 9 9 9 9 9 9 9 9 9 9 9 9 9 9 9 9 9 9 9 9 9 9 9 9 9 9 9 9 9 9 9 9 9 9 9 9 9 9 9 9 9 9 9 9 9 9 9 9 9 9 9 9 9 9 9 9 9 9 9 9 9 9 9 9 9 9 9 9 9 9 9 9 9 9 9 9 9 9 9 9 9 9 9 9 9 9 9 9 9 9 9 9 9 9 9 9 9 9 9 
</DataArray>
</Cells>
</Piece>
</UnstructuredGrid>
</VTKFile>
