<?xml version="1.0"?>
<VTKFile byte_order="LittleEndian" type="UnstructuredGrid" version="0.1">
<UnstructuredGrid>
<Piece NumberOfCells="100" NumberOfPoints="121">
<PointData>
<DataArray Name="Warping_X" format="ascii" type="Float64">
-0.891446 0.197139 -0.500468 -0.195329 0.0227035 0.15353 -0.00171383 -0.0178853 -0.14528 -0.185039 -0.137178 -1.09144 -0.0453156 -0.176129 -0.394185 -0.699507 -1.22696 -1.27492 -1.23495 -1.10701 -0.715411 -0.41034 -0.19232 -0.0614952 -0.842601 -0.537635 -0.319692 -0.188886 -0.882433 -0.577389 -0.359439 -0.228642 -0.834853 -0.529613 -0.311586 -0.180779 -0.891446 0.15353 0.0227035 -0.195329 -0.500468 -1.09144 -1.10701 -1.23495 -1.27492 -1.22696 -0.699507 -0.394185 -0.176129 -0.0453156 -0.0614952 -0.19232 -0.41034 -0.715411 -0.188886 -0.319692 -0.537635 -0.842601 -0.228642 -0.359439 -0.577389 -0.882433 -0.180779 -0.311586 -0.529613 -0.834853 1.98905 0.221573 0.532253 0.930358 1.41594 0.897856 1.94534 1.81419 1.59558 1.28967 0.324189 -0.161944 -0.560191 -0.870344 -0.476402 -0.171022 0.0470976 0.177954 -0.166316 0.139454 0.357675 0.488609 0.231447 0.537219 0.75564 0.88668 0.716672 1.02254 1.24111 1.37224 0.897856 -0.870344 -0.560191 -0.161944 0.324189 1.28967 1.59558 1.81419 1.94534 0.177954 0.0470976 -0.171022 -0.476402 0.488609 0.357675 0.139454 -0.166316 0.88668 0.75564 0.537219 0.231447 1.37224 1.24111 1.02254 0.716672 
</DataArray>
<DataArray Name="Warping_Y" format="ascii" type="Float64">
1.2864 -1.45085e-16 1.03007 0.772869 0.515326 0.257679 7.41699e-16 4.32396e-17 2.24504e-16 3.63376e-16 5.3393e-16 -0.890135 -0.178275 -0.356544 -0.534778 -0.712803 -0.455836 -0.0194292 0.417073 0.853239 0.682126 0.511466 0.34097 0.170488 0.333599 0.250066 0.166667 0.0833262 -0.0154754 -0.0115246 -0.00768035 -0.0038455 -0.364278 -0.273123 -0.182082 -0.0910455 -1.2864 -0.257679 -0.515326 -0.772869 -1.03007 0.890135 -0.853239 -0.417073 0.0194292 0.455836 0.712803 0.534778 0.356544 0.178275 -0.170488 -0.34097 -0.511466 -0.682126 -0.0833262 -0.166667 -0.250066 -0.333599 0.0038455 0.00768035 0.0115246 0.0154754 0.0910455 0.182082 0.273123 0.364278 -1.28704e-15 5.30913e-16 1.061e-16 -3.65534e-16 -9.53516e-16 -3.07725 -0.615851 -1.2317 -1.84746 -2.46283 -2.64329 -2.20624 -1.76845 -1.3301 -1.06347 -0.797572 -0.531705 -0.265844 -1.41444 -1.06054 -0.706909 -0.353423 -1.76472 -1.32321 -0.881983 -0.440953 -2.11411 -1.58538 -1.05687 -0.528417 3.07725 1.3301 1.76845 2.20624 2.64329 2.46283 1.84746 1.2317 0.615851 0.265844 0.531705 0.797572 1.06347 0.353423 0.706909 1.06054 1.41444 0.440953 0.881983 1.32321 1.76472 0.528417 1.05687 1.58538 2.11411 
</DataArray>
<DataArray Name="Warping_Z" format="ascii" type="Float64">
0 0 0 0 0 0 0 0 0 0 0 0 0 0 0 0 0 0 0 0 0 0 0 0 0 0 0 0 0 0 0 0 0 0 0 0 0 0 0 0 0 0 0 0 0 0 0 0 0 0 0 0 0 0 0 0 0 0 0 0 0 0 0 0 0 0 0 0 0 0 0 0 0 0 0 0 0 0 0 0 0 0 0 0 0 0 0 0 0 0 0 0 0 0 0 0 0 0 0 0 0 0 0 0 0 0 0 0 0 0 0 0 0 0 0 0 0 0 0 0 0 
</DataArray>
</PointData>
<CellData>
<DataArray Name="MaterialId" format="ascii" type="Float64">
1 1 1 1 1 1 1 1 1 1 1 1 1 1 1 1 1 1 1 1 1 1 1 1 1 1 1 1 1 1 1 1 1 1 1 1 1 1 1 1 1 1 1 1 1 1 1 1 1 1 2 2 2 2 2 2 2 2 2 2 2 2 2 2 2 2 2 2 2 2 2 2 2 2 2 2 2 2 2 2 2 2 2 2 2 2 2 2 2 2 2 2 2 2 2 2 2 2 2 2 
</DataArray>
<DataArray Name="FiberAngle" format="ascii" type="Float64">
0 0 0 0 0 0 0 0 0 0 0 0 0 0 0 0 0 0 0 0 0 0 0 0 0 0 0 0 0 0 0 0 0 0 0 0 0 0 0 0 0 0 0 0 0 0 0 0 0 0 0 0 0 0 0 0 0 0 0 0 0 0 0 0 0 0 0 0 0 0 0 0 0 0 0 0 0 0 0 0 0 0 0 0 0 0 0 0 0 0 0 0 0 0 0 0 0 0 0 0 
</DataArray>
<DataArray Name="Strain_11" format="ascii" type="Float64">
-21.5255 -12.7564 -3.98998 4.77675 13.5437 -21.4976 -12.7243 -3.97926 4.76779 13.5387 -21.5017 -12.7334 -3.97504 4.78149 13.5442 -21.5024 -12.7381 -3.97516 4.78584 13.546 -21.5024 -12.7393 -3.97577 4.78623 13.5464 -21.5024 -12.7393 -3.97577 4.78623 13.5464 -21.5024 -12.7381 -3.97516 4.78584 13.546 -21.5017 -12.7334 -3.97504 4.78149 13.5442 -21.4976 -12.7243 -3.97926 4.76779 13.5387 -21.5255 -12.7564 -3.98998 4.77675 13.5437 22.2098 31.012 39.8005 48.5679 57.3332 22.3134 31.0281 39.7764 48.5272 57.3021 22.3195 31.0527 39.7865 48.5395 57.306 22.3248 31.0616 39.8018 48.5515 57.3086 22.3278 31.0667 39.8088 48.5571 57.3102 22.3278 31.0667 39.8088 48.5571 57.3102 22.3248 31.0616 39.8018 48.5515 57.3086 22.3195 31.0527 39.7865 48.5395 57.306 22.3134 31.0281 39.7764 48.5272 57.3021 22.2098 31.012 39.8005 48.5679 57.3332 
</DataArray>
<DataArray Name="Strain_22" format="ascii" type="Float64">
-21.3721 -12.7294 -3.97604 4.77561 13.4445 -21.3928 -12.7096 -3.97912 4.75529 13.459 -21.4019 -12.6947 -3.9777 4.74425 13.4637 -21.4065 -12.6911 -3.97531 4.74356 13.4653 -21.4084 -12.6907 -3.97403 4.74455 13.466 -21.4084 -12.6907 -3.97403 4.74455 13.466 -21.4065 -12.6911 -3.97531 4.74356 13.4653 -21.4019 -12.6947 -3.9777 4.74425 13.4637 -21.3928 -12.7096 -3.97912 4.75529 13.459 -21.3721 -12.7294 -3.97604 4.77561 13.4445 22.198 31.0321 39.7765 48.5345 57.1801 22.1962 30.9899 39.7703 48.5117 57.2048 22.205 30.9748 39.743 48.4875 57.2139 22.2065 30.9673 39.7258 48.4739 57.2148 22.206 30.9633 39.7188 48.4685 57.2134 22.206 30.9633 39.7188 48.4685 57.2134 22.2065 30.9673 39.7258 48.4739 57.2148 22.205 30.9748 39.743 48.4875 57.2139 22.1962 30.9899 39.7703 48.5117 57.2048 22.198 31.0321 39.7765 48.5345 57.1801 
</DataArray>
<DataArray Name="Strain_12" format="ascii" type="Float64">
0.0741897 -0.0370204 -0.0371205 -0.030703 0.0607408 0.0433612 0.00545229 -0.0326932 -0.00577059 0.0191069 0.0146659 0.0129778 -0.00224948 -0.0011514 -0.00173292 0.00519096 0.0083125 0.00420436 0.000128581 -0.00357539 0.00139443 0.00271527 0.00186817 0.000207677 -0.00130765 -0.00139443 -0.00271527 -0.00186817 -0.000207677 0.00130765 -0.00519096 -0.0083125 -0.00420436 -0.000128581 0.00357539 -0.0146659 -0.0129778 0.00224948 0.0011514 0.00173292 -0.0433612 -0.00545229 0.0326932 0.00577059 -0.0191069 -0.0741897 0.0370204 0.0371205 0.030703 -0.0607408 -0.237888 -0.0751125 -0.0402365 -0.0282285 0.0805999 -0.138032 -0.139167 -0.0709213 0.00394273 0.049611 -0.088941 -0.0914335 -0.0553461 -0.0028677 0.0134895 -0.052974 -0.0496312 -0.0315289 -0.00897294 0.000496976 -0.0174508 -0.0157737 -0.0103866 -0.00417814 -0.000989651 0.0174508 0.0157737 0.0103866 0.00417814 0.000989651 0.052974 0.0496312 0.0315289 0.00897294 -0.000496976 0.088941 0.0914335 0.0553461 0.0028677 -0.0134895 0.138032 0.139167 0.0709213 -0.00394273 -0.049611 0.237888 0.0751125 0.0402365 0.0282285 -0.0805999 
</DataArray>
<DataArray Name="Strain_13" format="ascii" type="Float64">
0 0 0 0 0 0 0 0 0 0 0 0 0 0 0 0 0 0 0 0 0 0 0 0 0 0 0 0 0 0 0 0 0 0 0 0 0 0 0 0 0 0 0 0 0 0 0 0 0 0 0 0 0 0 0 0 0 0 0 0 0 0 0 0 0 0 0 0 0 0 0 0 0 0 0 0 0 0 0 0 0 0 0 0 0 0 0 0 0 0 0 0 0 0 0 0 0 0 0 0 
</DataArray>
<DataArray Name="Strain_23" format="ascii" type="Float64">
0 0 0 0 0 0 0 0 0 0 0 0 0 0 0 0 0 0 0 0 0 0 0 0 0 0 0 0 0 0 0 0 0 0 0 0 0 0 0 0 0 0 0 0 0 0 0 0 0 0 0 0 0 0 0 0 0 0 0 0 0 0 0 0 0 0 0 0 0 0 0 0 0 0 0 0 0 0 0 0 0 0 0 0 0 0 0 0 0 0 0 0 0 0 0 0 0 0 0 0 
</DataArray>
<DataArray Name="Strain_33" format="ascii" type="Float64">
0.045 0.035 0.025 0.015 0.005 0.045 0.035 0.025 0.015 0.005 0.045 0.035 0.025 0.015 0.005 0.045 0.035 0.025 0.015 0.005 0.045 0.035 0.025 0.015 0.005 0.045 0.035 0.025 0.015 0.005 0.045 0.035 0.025 0.015 0.005 0.045 0.035 0.025 0.015 0.005 0.045 0.035 0.025 0.015 0.005 0.045 0.035 0.025 0.015 0.005 -0.005 -0.015 -0.025 -0.035 -0.045 -0.005 -0.015 -0.025 -0.035 -0.045 -0.005 -0.015 -0.025 -0.035 -0.045 -0.005 -0.015 -0.025 -0.035 -0.045 -0.005 -0.015 -0.025 -0.035 -0.045 -0.005 -0.015 -0.025 -0.035 -0.045 -0.005 -0.015 -0.025 -0.035 -0.045 -0.005 -0.015 -0.025 -0.035 -0.045 -0.005 -0.015 -0.025 -0.035 -0.045 -0.005 -0.015 -0.025 -0.035 -0.045 
</DataArray>
<DataArray Name="Stress_11" format="ascii" type="Float64">
-2984.14 -1770 -553.082 663.823 1878.45 -2981.62 -1765.89 -551.976 662.262 1878.3 -2982.33 -1766.48 -551.468 663.478 1879.04 -2982.53 -1766.91 -551.416 663.942 1879.28 -2982.59 -1767.02 -551.448 664.013 1879.35 -2982.59 -1767.02 -551.448 664.013 1879.35 -2982.53 -1766.91 -551.416 663.942 1879.28 -2982.33 -1766.48 -551.468 663.478 1879.04 -2981.62 -1765.89 -551.976 662.262 1878.3 -2984.14 -1770 -553.082 663.823 1878.45 308.423 430.736 552.648 674.364 795.745 309.569 430.798 552.364 673.849 795.468 309.661 431.029 552.4 673.919 795.536 309.725 431.108 552.522 674.014 795.567 309.756 431.154 552.581 674.061 795.581 309.756 431.154 552.581 674.061 795.581 309.725 431.108 552.522 674.014 795.567 309.661 431.029 552.4 673.919 795.536 309.569 430.798 552.364 673.849 795.468 308.423 430.736 552.648 674.364 795.745 
</DataArray>
<DataArray Name="Stress_22" format="ascii" type="Float64">
-2971.36 -1767.75 -551.921 663.728 1870.19 -2972.89 -1764.66 -551.965 661.221 1871.66 -2974.01 -1763.26 -551.69 660.375 1872.33 -2974.54 -1762.99 -551.428 660.419 1872.56 -2974.75 -1762.98 -551.303 660.54 1872.65 -2974.75 -1762.98 -551.303 660.54 1872.65 -2974.54 -1762.99 -551.428 660.419 1872.56 -2974.01 -1763.26 -551.69 660.375 1872.33 -2972.89 -1764.66 -551.965 661.221 1871.66 -2971.36 -1767.75 -551.921 663.728 1870.19 308.324 430.903 552.448 674.086 794.468 308.592 430.48 552.313 673.72 794.657 308.707 430.38 552.037 673.485 794.768 308.738 430.322 551.889 673.367 794.785 308.741 430.292 551.83 673.322 794.775 308.741 430.292 551.83 673.322 794.775 308.738 430.322 551.889 673.367 794.785 308.707 430.38 552.037 673.485 794.768 308.592 430.48 552.313 673.72 794.657 308.324 430.903 552.448 674.086 794.468 
</DataArray>
<DataArray Name="Stress_12" format="ascii" type="Float64">
3.09126 -1.54253 -1.5467 -1.2793 2.53089 1.80673 0.227181 -1.36223 -0.240443 0.796128 0.611083 0.540747 -0.0937291 -0.0479755 -0.0722055 0.216292 0.346357 0.175183 0.00535757 -0.148976 0.0581016 0.113137 0.077841 0.0086533 -0.0544858 -0.0581016 -0.113137 -0.077841 -0.0086533 0.0544858 -0.216292 -0.346357 -0.175183 -0.00535757 0.148976 -0.611083 -0.540747 0.0937291 0.0479755 0.0722055 -1.80673 -0.227181 1.36223 0.240443 -0.796128 -3.09126 1.54253 1.5467 1.2793 -2.53089 -0.991209 -0.312971 -0.167654 -0.11762 0.335836 -0.575137 -0.579866 -0.295508 0.0164282 0.206714 -0.37059 -0.380976 -0.230611 -0.0119488 0.0562066 -0.220727 -0.206798 -0.131371 -0.0373876 0.00207075 -0.0727123 -0.0657242 -0.043278 -0.0174091 -0.00412358 0.0727123 0.0657242 0.043278 0.0174091 0.00412358 0.220727 0.206798 0.131371 0.0373876 -0.00207075 0.37059 0.380976 0.230611 0.0119488 -0.0562066 0.575137 0.579866 0.295508 -0.0164282 -0.206714 0.991209 0.312971 0.167654 0.11762 -0.335836 
</DataArray>
<DataArray Name="Stress_13" format="ascii" type="Float64">
0 0 0 0 0 0 0 0 0 0 0 0 0 0 0 0 0 0 0 0 0 0 0 0 0 0 0 0 0 0 0 0 0 0 0 0 0 0 0 0 0 0 0 0 0 0 0 0 0 0 0 0 0 0 0 0 0 0 0 0 0 0 0 0 0 0 0 0 0 0 0 0 0 0 0 0 0 0 0 0 0 0 0 0 0 0 0 0 0 0 0 0 0 0 0 0 0 0 0 0 
</DataArray>
<DataArray Name="Stress_23" format="ascii" type="Float64">
0 0 0 0 0 0 0 0 0 0 0 0 0 0 0 0 0 0 0 0 0 0 0 0 0 0 0 0 0 0 0 0 0 0 0 0 0 0 0 0 0 0 0 0 0 0 0 0 0 0 0 0 0 0 0 0 0 0 0 0 0 0 0 0 0 0 0 0 0 0 0 0 0 0 0 0 0 0 0 0 0 0 0 0 0 0 0 0 0 0 0 0 0 0 0 0 0 0 0 0 
</DataArray>
<DataArray Name="Stress_33" format="ascii" type="Float64">
-1186.6 -704.049 -218.501 267.01 750.228 -1186.4 -702.611 -218.288 266.197 750.493 -1186.77 -702.448 -218.132 266.271 750.776 -1186.91 -702.48 -218.069 266.372 750.869 -1186.97 -702.5 -218.05 266.411 750.899 -1186.97 -702.5 -218.05 266.411 750.899 -1186.91 -702.48 -218.069 266.372 750.869 -1186.77 -702.448 -218.132 266.271 750.776 -1186.4 -702.611 -218.288 266.197 750.493 -1186.6 -704.049 -218.501 267.01 750.228 123.3 172.178 220.769 269.34 317.593 123.582 172.106 220.685 269.164 317.575 123.624 172.132 220.637 269.131 317.611 123.643 172.136 220.632 269.126 317.621 123.649 172.139 220.632 269.127 317.621 123.649 172.139 220.632 269.127 317.621 123.643 172.136 220.632 269.126 317.621 123.624 172.132 220.637 269.131 317.611 123.582 172.106 220.685 269.164 317.575 123.3 172.178 220.769 269.34 317.593 
</DataArray>
</CellData>
<Points>
<DataArray NumberOfComponents="3" format="ascii" type="Float64">
-0.05 -0.05 0 -0.05 0 0 -0.05 -0.04 0 -0.05 -0.03 0 -0.05 -0.02 0 -0.05 -0.01 0 0 0 0 -0.04 0 0 -0.03 0 0 -0.02 0 0 -0.01 0 0 0 -0.05 0 0 -0.01 0 0 -0.02 0 0 -0.03 0 0 -0.04 0 -0.01 -0.05 0 -0.02 -0.05 0 -0.03 -0.05 0 -0.04 -0.05 0 -0.04 -0.04 0 -0.04 -0.03 0 -0.04 -0.02 0 -0.04 -0.01 0 -0.03 -0.04 0 -0.03 -0.03 0 -0.03 -0.02 0 -0.03 -0.01 0 -0.02 -0.04 0 -0.02 -0.03 0 -0.02 -0.02 0 -0.02 -0.01 0 -0.01 -0.04 0 -0.01 -0.03 0 -0.01 -0.02 0 -0.01 -0.01 0 -0.05 0.05 0 -0.05 0.01 0 -0.05 0.02 0 -0.05 0.03 0 -0.05 0.04 0 0 0.05 0 -0.04 0.05 0 -0.03 0.05 0 -0.02 0.05 0 -0.01 0.05 0 0 0.04 0 0 0.03 0 0 0.02 0 0 0.01 0 -0.04 0.01 0 -0.04 0.02 0 -0.04 0.03 0 -0.04 0.04 0 -0.03 0.01 0 -0.03 0.02 0 -0.03 0.03 0 -0.03 0.04 0 -0.02 0.01 0 -0.02 0.02 0 -0.02 0.03 0 -0.02 0.04 0 -0.01 0.01 0 -0.01 0.02 0 -0.01 0.03 0 -0.01 0.04 0 0.05 0 0 0.01 0 0 0.02 0 0 0.03 0 0 0.04 0 0 0.05 -0.05 0 0.05 -0.01 0 0.05 -0.02 0 0.05 -0.03 0 0.05 -0.04 0 0.04 -0.05 0 0.03 -0.05 0 0.02 -0.05 0 0.01 -0.05 0 0.01 -0.04 0 0.01 -0.03 0 0.01 -0.02 0 0.01 -0.01 0 0.02 -0.04 0 0.02 -0.03 0 0.02 -0.02 0 0.02 -0.01 0 0.03 -0.04 0 0.03 -0.03 0 0.03 -0.02 0 0.03 -0.01 0 0.04 -0.04 0 0.04 -0.03 0 0.04 -0.02 0 0.04 -0.01 0 0.05 0.05 0 0.01 0.05 0 0.02 0.05 0 0.03 0.05 0 0.04 0.05 0 0.05 0.04 0 0.05 0.03 0 0.05 0.02 0 0.05 0.01 0 0.01 0.01 0 0.01 0.02 0 0.01 0.03 0 0.01 0.04 0 0.02 0.01 0 0.02 0.02 0 0.02 0.03 0 0.02 0.04 0 0.03 0.01 0 0.03 0.02 0 0.03 0.03 0 0.03 0.04 0 0.04 0.01 0 0.04 0.02 0 0.04 0.03 0 0.04 0.04 0 
</DataArray>
</Points>
<Cells>
<DataArray Name="connectivity" format="ascii" type="Int64">
0 19 20 2 19 18 24 20 18 17 28 24 17 16 32 28 16 11 15 32 2 20 21 3 20 24 25 21 24 28 29 25 28 32 33 29 32 15 14 33 3 21 22 4 21 25 26 22 25 29 30 26 29 33 34 30 33 14 13 34 4 22 23 5 22 26 27 23 26 30 31 27 30 34 35 31 34 13 12 35 5 23 7 1 23 27 8 7 27 31 9 8 31 35 10 9 35 12 6 10 1 7 50 37 7 8 54 50 8 9 58 54 9 10 62 58 10 6 49 62 37 50 51 38 50 54 55 51 54 58 59 55 58 62 63 59 62 49 48 63 38 51 52 39 51 55 56 52 55 59 60 56 59 63 64 60 63 48 47 64 39 52 53 40 52 56 57 53 56 60 61 57 60 64 65 61 64 47 46 65 40 53 42 36 53 57 43 42 57 61 44 43 61 65 45 44 65 46 41 45 11 79 80 15 79 78 84 80 78 77 88 84 77 76 92 88 76 71 75 92 15 80 81 14 80 84 85 81 84 88 89 85 88 92 93 89 92 75 74 93 14 81 82 13 81 85 86 82 85 89 90 86 89 93 94 90 93 74 73 94 13 82 83 12 82 86 87 83 86 90 91 87 90 94 95 91 94 73 72 95 12 83 67 6 83 87 68 67 87 91 69 68 91 95 70 69 95 72 66 70 6 67 105 49 67 68 109 105 68 69 113 109 69 70 117 113 70 66 104 117 49 105 106 48 105 109 110 106 109 113 114 110 113 117 118 114 117 104 103 118 48 106 107 47 106 110 111 107 110 114 115 111 114 118 119 115 118 103 102 119 47 107 108 46 107 111 112 108 111 115 116 112 115 119 120 116 119 102 101 120 46 108 97 41 108 112 98 97 112 116 99 98 116 120 100 99 120 101 96 100 
</DataArray>
<DataArray Name="offsets" format="ascii" type="Int64">
4 8 12 16 20 24 28 32 36 40 44 48 52 56 60 64 68 72 76 80 84 88 92 96 100 104 108 112 116 120 124 128 132 136 140 144 148 152 156 160 164 168 172 176 180 184 188 192 196 200 204 208 212 216 220 224 228 232 236 240 244 248 252 256 260 264 268 272 276 280 284 288 292 296 300 304 308 312 316 320 324 328 332 336 340 344 348 352 356 360 364 368 372 376 380 384 388 392 396 400 
</DataArray>
<DataArray Name="types" format="ascii" type="Int8">
9 9 9 9 9 9 9 9 9 9 9 9 9 9 9 9 9 9 9 9 9 9 9 9 9 9 9 9 9 9 9 9 9 9 9 9 9 9 9 9 9 9 9 9 9 9 9 9 9 9 9 9 9 9 9 9 9 9 9 9 9 9 9 9 9 9 9 9 9 9 9 9 9 9 9 9 9 9 9 9 9 9 9 9 9 9 9 9 9 9 9 9 9 9 9 9 9 9 9 9 
</DataArray>
</Cells>
</Piece>
</UnstructuredGrid>
</VTKFile>
