<?xml version="1.0"?>
<VTKFile byte_order="LittleEndian" type="UnstructuredGrid" version="0.1">
<UnstructuredGrid>
<Piece NumberOfCells="100" NumberOfPoints="121">
<PointData>
<DataArray Name="Warping_X" format="ascii" type="Float64">
-1.08722 -4.55552e-16 -0.871157 -0.6536 -0.435812 -0.217919 -1.71819e-16 -4.39261e-16 -3.69806e-16 -3.1173e-16 -2.38571e-16 -0.000836155 0.000172817 0.000334776 0.000430412 0.00036909 -0.217947 -0.435398 -0.652927 -0.870296 -0.696698 -0.522808 -0.348602 -0.174313 -0.52245 -0.391964 -0.261358 -0.130688 -0.348269 -0.261158 -0.174101 -0.0870548 -0.174039 -0.130342 -0.0868679 -0.0434318 1.08722 0.217919 0.435812 0.6536 0.871157 0.000836155 0.870296 0.652927 0.435398 0.217947 -0.00036909 -0.000430412 -0.000334776 -0.000172817 0.174313 0.348602 0.522808 0.696698 0.130688 0.261358 0.391964 0.52245 0.0870548 0.174101 0.261158 0.348269 0.0434318 0.0868679 0.130342 0.174039 5.9001e-16 6.18717e-17 2.46498e-16 3.98057e-16 5.02366e-16 1.08747 0.218013 0.43597 0.653786 0.871364 0.870542 0.653141 0.435485 0.217599 0.174257 0.130925 0.0873642 0.0437053 0.348431 0.261493 0.174441 0.0872537 0.522637 0.392197 0.261588 0.130829 0.696902 0.523007 0.34878 0.174422 -1.08747 -0.217599 -0.435485 -0.653141 -0.870542 -0.871364 -0.653786 -0.43597 -0.218013 -0.0437053 -0.0873642 -0.130925 -0.174257 -0.0872537 -0.174441 -0.261493 -0.348431 -0.130829 -0.261588 -0.392197 -0.522637 -0.174422 -0.34878 -0.523007 -0.696902 
</DataArray>
<DataArray Name="Warping_Y" format="ascii" type="Float64">
-0.00130919 0.544846 0.195304 0.348289 0.45751 0.523015 0.000584938 0.348773 0.196349 0.0875132 0.0222497 -0.545174 -0.0212295 -0.0866855 -0.195821 -0.348678 -0.522837 -0.457479 -0.348644 -0.196363 -7.08795e-05 0.1525 0.261534 0.326963 -0.152332 0.000249729 0.10919 0.174558 -0.261168 -0.108579 0.000361864 0.0657246 -0.326544 -0.173969 -0.0649581 0.000448088 -0.00130919 0.523015 0.45751 0.348289 0.195304 -0.545174 -0.196363 -0.348644 -0.457479 -0.522837 -0.348678 -0.195821 -0.0866855 -0.0212295 0.326963 0.261534 0.1525 -7.08795e-05 0.174558 0.10919 0.000249729 -0.152332 0.0657246 0.000361864 -0.108579 -0.261168 0.000448088 -0.0649581 -0.173969 -0.326544 0.544825 0.0222543 0.0874734 0.196271 0.348694 -0.00146703 0.522973 0.45742 0.348154 0.195149 -0.196575 -0.348942 -0.457902 -0.523361 -0.327022 -0.174165 -0.0650246 0.000437815 -0.261579 -0.108869 0.000217476 0.0656601 -0.152627 6.21359e-06 0.109027 0.174458 -0.000277117 0.15232 0.261399 0.326868 -0.00146703 -0.523361 -0.457902 -0.348942 -0.196575 0.195149 0.348154 0.45742 0.522973 0.000437815 -0.0650246 -0.174165 -0.327022 0.0656601 0.000217476 -0.108869 -0.261579 0.174458 0.109027 6.21359e-06 -0.152627 0.326868 0.261399 0.15232 -0.000277117 
</DataArray>
<DataArray Name="Warping_Z" format="ascii" type="Float64">
0 0 0 0 0 0 0 0 0 0 0 0 0 0 0 0 0 0 0 0 0 0 0 0 0 0 0 0 0 0 0 0 0 0 0 0 0 0 0 0 0 0 0 0 0 0 0 0 0 0 0 0 0 0 0 0 0 0 0 0 0 0 0 0 0 0 0 0 0 0 0 0 0 0 0 0 0 0 0 0 0 0 0 0 0 0 0 0 0 0 0 0 0 0 0 0 0 0 0 0 0 0 0 0 0 0 0 0 0 0 0 0 0 0 0 0 0 0 0 0 0 
</DataArray>
</PointData>
<CellData>
<DataArray Name="MaterialId" format="ascii" type="Float64">
1 1 1 1 1 1 1 1 1 1 1 1 1 1 1 1 1 1 1 1 1 1 1 1 1 1 1 1 1 1 1 1 1 1 1 1 1 1 1 1 1 1 1 1 1 1 1 1 1 1 2 2 2 2 2 2 2 2 2 2 2 2 2 2 2 2 2 2 2 2 2 2 2 2 2 2 2 2 2 2 2 2 2 2 2 2 2 2 2 2 2 2 2 2 2 2 2 2 2 2 
</DataArray>
<DataArray Name="FiberAngle" format="ascii" type="Float64">
0 0 0 0 0 0 0 0 0 0 0 0 0 0 0 0 0 0 0 0 0 0 0 0 0 0 0 0 0 0 0 0 0 0 0 0 0 0 0 0 0 0 0 0 0 0 0 0 0 0 0 0 0 0 0 0 0 0 0 0 0 0 0 0 0 0 0 0 0 0 0 0 0 0 0 0 0 0 0 0 0 0 0 0 0 0 0 0 0 0 0 0 0 0 0 0 0 0 0 0 
</DataArray>
<DataArray Name="Strain_11" format="ascii" type="Float64">
19.569 19.5809 19.5855 19.5841 19.5759 15.2625 15.2547 15.2494 15.2523 15.259 10.9001 10.9044 10.9032 10.9024 10.8988 6.5408 6.54345 6.54451 6.54281 6.54037 2.18029 2.18128 2.18165 2.18115 2.18023 -2.18029 -2.18128 -2.18165 -2.18115 -2.18023 -6.5408 -6.54345 -6.54451 -6.54281 -6.54037 -10.9001 -10.9044 -10.9032 -10.9024 -10.8988 -15.2625 -15.2547 -15.2494 -15.2523 -15.259 -19.569 -19.5809 -19.5855 -19.5841 -19.5759 19.6161 19.603 19.5931 19.5833 19.5693 15.2191 15.2371 15.2455 15.2538 15.2621 10.8762 10.8823 10.8925 10.9001 10.8985 6.52809 6.53128 6.53607 6.53926 6.53909 2.17662 2.17742 2.17875 2.17965 2.17958 -2.17662 -2.17742 -2.17875 -2.17965 -2.17958 -6.52809 -6.53128 -6.53607 -6.53926 -6.53909 -10.8762 -10.8823 -10.8925 -10.9001 -10.8985 -15.2191 -15.2371 -15.2455 -15.2538 -15.2621 -19.6161 -19.603 -19.5931 -19.5833 -19.5693 
</DataArray>
<DataArray Name="Strain_22" format="ascii" type="Float64">
19.6453 19.6302 19.6311 19.6302 19.6395 15.2777 15.2576 15.2585 15.2582 15.2716 10.9128 10.8987 10.8941 10.8976 10.9073 6.54671 6.53981 6.53652 6.53845 6.54311 2.18205 2.18005 2.17897 2.17951 2.1808 -2.18205 -2.18005 -2.17897 -2.17951 -2.1808 -6.54671 -6.53981 -6.53652 -6.53845 -6.54311 -10.9128 -10.8987 -10.8941 -10.8976 -10.9073 -15.2777 -15.2576 -15.2585 -15.2582 -15.2716 -19.6453 -19.6302 -19.6311 -19.6302 -19.6395 19.6418 19.6331 19.6319 19.6306 19.6457 15.2857 15.2784 15.2672 15.2615 15.2801 10.9138 10.9113 10.9054 10.905 10.9173 6.54592 6.54525 6.54368 6.54497 6.5511 2.18154 2.18149 2.18131 2.18193 2.18386 -2.18154 -2.18149 -2.18131 -2.18193 -2.18386 -6.54592 -6.54525 -6.54368 -6.54497 -6.5511 -10.9138 -10.9113 -10.9054 -10.905 -10.9173 -15.2857 -15.2784 -15.2672 -15.2615 -15.2801 -19.6418 -19.6331 -19.6319 -19.6306 -19.6457 
</DataArray>
<DataArray Name="Strain_12" format="ascii" type="Float64">
-0.0385529 -0.023307 -0.00323349 0.0151888 0.0321103 0.0141294 -0.00675116 -0.00344138 0.00210707 -0.0114054 0.0114662 0.0109072 0.000207005 -0.00892277 -0.0100065 0.00764046 0.0105179 0.00276859 -0.00570386 -0.00653425 0.00531684 0.00863309 0.00369928 -0.00266922 -0.00416413 0.00531684 0.00863309 0.00369928 -0.00266922 -0.00416413 0.00764046 0.0105179 0.00276859 -0.00570386 -0.00653425 0.0114662 0.0109072 0.000207005 -0.00892277 -0.0100065 0.0141294 -0.00675116 -0.00344138 0.00210707 -0.0114054 -0.0385529 -0.023307 -0.00323349 0.0151888 0.0321103 0.0666335 0.025316 0.0177241 0.0286501 0.0396191 0.0020713 0.0234244 0.022428 0.0164033 -0.0107117 -0.0169971 -0.00374528 0.0011925 -0.00746159 -0.00949967 -0.0246342 -0.0191142 -0.0169707 -0.0167121 -0.00945719 -0.0270736 -0.0258808 -0.0243739 -0.0208797 -0.00995046 -0.0270736 -0.0258808 -0.0243739 -0.0208797 -0.00995046 -0.0246342 -0.0191142 -0.0169707 -0.0167121 -0.00945719 -0.0169971 -0.00374528 0.0011925 -0.00746159 -0.00949967 0.0020713 0.0234244 0.022428 0.0164033 -0.0107117 0.0666335 0.025316 0.0177241 0.0286501 0.0396191 
</DataArray>
<DataArray Name="Strain_13" format="ascii" type="Float64">
0 0 0 0 0 0 0 0 0 0 0 0 0 0 0 0 0 0 0 0 0 0 0 0 0 0 0 0 0 0 0 0 0 0 0 0 0 0 0 0 0 0 0 0 0 0 0 0 0 0 0 0 0 0 0 0 0 0 0 0 0 0 0 0 0 0 0 0 0 0 0 0 0 0 0 0 0 0 0 0 0 0 0 0 0 0 0 0 0 0 0 0 0 0 0 0 0 0 0 0 
</DataArray>
<DataArray Name="Strain_23" format="ascii" type="Float64">
0 0 0 0 0 0 0 0 0 0 0 0 0 0 0 0 0 0 0 0 0 0 0 0 0 0 0 0 0 0 0 0 0 0 0 0 0 0 0 0 0 0 0 0 0 0 0 0 0 0 0 0 0 0 0 0 0 0 0 0 0 0 0 0 0 0 0 0 0 0 0 0 0 0 0 0 0 0 0 0 0 0 0 0 0 0 0 0 0 0 0 0 0 0 0 0 0 0 0 0 
</DataArray>
<DataArray Name="Strain_33" format="ascii" type="Float64">
-0.045 -0.045 -0.045 -0.045 -0.045 -0.035 -0.035 -0.035 -0.035 -0.035 -0.025 -0.025 -0.025 -0.025 -0.025 -0.015 -0.015 -0.015 -0.015 -0.015 -0.005 -0.005 -0.005 -0.005 -0.005 0.005 0.005 0.005 0.005 0.005 0.015 0.015 0.015 0.015 0.015 0.025 0.025 0.025 0.025 0.025 0.035 0.035 0.035 0.035 0.035 0.045 0.045 0.045 0.045 0.045 -0.045 -0.045 -0.045 -0.045 -0.045 -0.035 -0.035 -0.035 -0.035 -0.035 -0.025 -0.025 -0.025 -0.025 -0.025 -0.015 -0.015 -0.015 -0.015 -0.015 -0.005 -0.005 -0.005 -0.005 -0.005 0.005 0.005 0.005 0.005 0.005 0.015 0.015 0.015 0.015 0.015 0.025 0.025 0.025 0.025 0.025 0.035 0.035 0.035 0.035 0.035 0.045 0.045 0.045 0.045 0.045 
</DataArray>
<DataArray Name="Stress_11" format="ascii" type="Float64">
2718.79 2719.69 2720.22 2720.04 2719.39 2119.25 2117.81 2117.25 2117.56 2118.69 1513.56 1513.65 1513.38 1513.4 1513.26 908.192 908.295 908.321 908.186 908.044 302.728 302.783 302.794 302.753 302.687 -302.728 -302.783 -302.794 -302.753 -302.687 -908.192 -908.295 -908.321 -908.186 -908.044 -1513.56 -1513.65 -1513.38 -1513.4 -1513.26 -2119.25 -2117.81 -2117.25 -2117.56 -2118.69 -2718.79 -2719.69 -2720.22 -2720.04 -2719.39 272.393 272.223 272.109 271.996 271.884 211.464 211.644 211.706 211.782 211.926 151.093 151.154 151.251 151.335 151.35 90.6758 90.7094 90.7582 90.7972 90.8124 30.2306 30.2394 30.2537 30.2654 30.2699 -30.2306 -30.2394 -30.2537 -30.2654 -30.2699 -90.6758 -90.7094 -90.7582 -90.7972 -90.8124 -151.093 -151.154 -151.251 -151.335 -151.35 -211.464 -211.644 -211.706 -211.782 -211.926 -272.393 -272.223 -272.109 -271.996 -271.884 
</DataArray>
<DataArray Name="Stress_22" format="ascii" type="Float64">
2725.15 2723.8 2724.03 2723.88 2724.69 2120.51 2118.06 2118.01 2118.06 2119.74 1514.61 1513.18 1512.63 1513 1513.97 908.684 907.992 907.655 907.823 908.273 302.875 302.68 302.57 302.616 302.734 -302.875 -302.68 -302.57 -302.616 -302.734 -908.684 -907.992 -907.655 -907.823 -908.273 -1514.61 -1513.18 -1512.63 -1513 -1513.97 -2120.51 -2118.06 -2118.01 -2118.06 -2119.74 -2725.15 -2723.8 -2724.03 -2723.88 -2724.69 272.606 272.473 272.432 272.391 272.52 212.019 211.988 211.887 211.847 212.076 151.406 151.396 151.358 151.375 151.507 90.8244 90.8258 90.8217 90.8448 90.9125 30.2716 30.2733 30.2749 30.2844 30.3056 -30.2716 -30.2733 -30.2749 -30.2844 -30.3056 -90.8244 -90.8258 -90.8217 -90.8448 -90.9125 -151.406 -151.396 -151.358 -151.375 -151.507 -212.019 -211.988 -211.887 -211.847 -212.076 -272.606 -272.473 -272.432 -272.391 -272.52 
</DataArray>
<DataArray Name="Stress_12" format="ascii" type="Float64">
-1.60638 -0.971134 -0.13473 0.632871 1.33794 0.588729 -0.281301 -0.143392 0.0877954 -0.475231 0.477761 0.45447 0.00862527 -0.371785 -0.416941 0.318355 0.438249 0.115359 -0.237663 -0.272263 0.221537 0.359715 0.154138 -0.111219 -0.173507 0.221537 0.359715 0.154138 -0.111219 -0.173507 0.318355 0.438249 0.115359 -0.237663 -0.272263 0.477761 0.45447 0.00862527 -0.371785 -0.416941 0.588729 -0.281301 -0.143392 0.0877954 -0.475231 -1.60638 -0.971134 -0.13473 0.632871 1.33794 0.277642 0.105484 0.073851 0.119376 0.165081 0.0086305 0.0976023 0.0934509 0.0683476 -0.0446326 -0.0708218 -0.0156054 0.00496879 -0.0310902 -0.0395823 -0.102643 -0.0796433 -0.0707119 -0.0696341 -0.0394053 -0.112807 -0.107838 -0.101559 -0.0869996 -0.0414606 -0.112807 -0.107838 -0.101559 -0.0869996 -0.0414606 -0.102643 -0.0796433 -0.0707119 -0.0696341 -0.0394053 -0.0708218 -0.0156054 0.00496879 -0.0310902 -0.0395823 0.0086305 0.0976023 0.0934509 0.0683476 -0.0446326 0.277642 0.105484 0.073851 0.119376 0.165081 
</DataArray>
<DataArray Name="Stress_13" format="ascii" type="Float64">
0 0 0 0 0 0 0 0 0 0 0 0 0 0 0 0 0 0 0 0 0 0 0 0 0 0 0 0 0 0 0 0 0 0 0 0 0 0 0 0 0 0 0 0 0 0 0 0 0 0 0 0 0 0 0 0 0 0 0 0 0 0 0 0 0 0 0 0 0 0 0 0 0 0 0 0 0 0 0 0 0 0 0 0 0 0 0 0 0 0 0 0 0 0 0 0 0 0 0 0 
</DataArray>
<DataArray Name="Stress_23" format="ascii" type="Float64">
0 0 0 0 0 0 0 0 0 0 0 0 0 0 0 0 0 0 0 0 0 0 0 0 0 0 0 0 0 0 0 0 0 0 0 0 0 0 0 0 0 0 0 0 0 0 0 0 0 0 0 0 0 0 0 0 0 0 0 0 0 0 0 0 0 0 0 0 0 0 0 0 0 0 0 0 0 0 0 0 0 0 0 0 0 0 0 0 0 0 0 0 0 0 0 0 0 0 0 0 
</DataArray>
<DataArray Name="Stress_33" format="ascii" type="Float64">
1084.29 1084.2 1084.35 1084.28 1084.32 844.452 843.674 843.552 843.624 844.185 603.135 602.865 602.702 602.778 602.946 361.875 361.757 361.695 361.702 361.763 120.621 120.593 120.573 120.574 120.584 -120.621 -120.593 -120.573 -120.574 -120.584 -361.875 -361.757 -361.695 -361.702 -361.763 -603.135 -602.865 -602.702 -602.778 -602.946 -844.452 -843.674 -843.552 -843.624 -844.185 -1084.29 -1084.2 -1084.35 -1084.28 -1084.32 108.55 108.489 108.458 108.428 108.431 84.3468 84.3764 84.3684 84.3758 84.4505 60.2499 60.26 60.2718 60.292 60.3215 36.15 36.157 36.166 36.1784 36.195 12.0505 12.0525 12.0557 12.06 12.0651 -12.0505 -12.0525 -12.0557 -12.06 -12.0651 -36.15 -36.157 -36.166 -36.1784 -36.195 -60.2499 -60.26 -60.2718 -60.292 -60.3215 -84.3468 -84.3764 -84.3684 -84.3758 -84.4505 -108.55 -108.489 -108.458 -108.428 -108.431 
</DataArray>
</CellData>
<Points>
<DataArray NumberOfComponents="3" format="ascii" type="Float64">
-0.05 -0.05 0 -0.05 0 0 -0.05 -0.04 0 -0.05 -0.03 0 -0.05 -0.02 0 -0.05 -0.01 0 0 0 0 -0.04 0 0 -0.03 0 0 -0.02 0 0 -0.01 0 0 0 -0.05 0 0 -0.01 0 0 -0.02 0 0 -0.03 0 0 -0.04 0 -0.01 -0.05 0 -0.02 -0.05 0 -0.03 -0.05 0 -0.04 -0.05 0 -0.04 -0.04 0 -0.04 -0.03 0 -0.04 -0.02 0 -0.04 -0.01 0 -0.03 -0.04 0 -0.03 -0.03 0 -0.03 -0.02 0 -0.03 -0.01 0 -0.02 -0.04 0 -0.02 -0.03 0 -0.02 -0.02 0 -0.02 -0.01 0 -0.01 -0.04 0 -0.01 -0.03 0 -0.01 -0.02 0 -0.01 -0.01 0 -0.05 0.05 0 -0.05 0.01 0 -0.05 0.02 0 -0.05 0.03 0 -0.05 0.04 0 0 0.05 0 -0.04 0.05 0 -0.03 0.05 0 -0.02 0.05 0 -0.01 0.05 0 0 0.04 0 0 0.03 0 0 0.02 0 0 0.01 0 -0.04 0.01 0 -0.04 0.02 0 -0.04 0.03 0 -0.04 0.04 0 -0.03 0.01 0 -0.03 0.02 0 -0.03 0.03 0 -0.03 0.04 0 -0.02 0.01 0 -0.02 0.02 0 -0.02 0.03 0 -0.02 0.04 0 -0.01 0.01 0 -0.01 0.02 0 -0.01 0.03 0 -0.01 0.04 0 0.05 0 0 0.01 0 0 0.02 0 0 0.03 0 0 0.04 0 0 0.05 -0.05 0 0.05 -0.01 0 0.05 -0.02 0 0.05 -0.03 0 0.05 -0.04 0 0.04 -0.05 0 0.03 -0.05 0 0.02 -0.05 0 0.01 -0.05 0 0.01 -0.04 0 0.01 -0.03 0 0.01 -0.02 0 0.01 -0.01 0 0.02 -0.04 0 0.02 -0.03 0 0.02 -0.02 0 0.02 -0.01 0 0.03 -0.04 0 0.03 -0.03 0 0.03 -0.02 0 0.03 -0.01 0 0.04 -0.04 0 0.04 -0.03 0 0.04 -0.02 0 0.04 -0.01 0 0.05 0.05 0 0.01 0.05 0 0.02 0.05 0 0.03 0.05 0 0.04 0.05 0 0.05 0.04 0 0.05 0.03 0 0.05 0.02 0 0.05 0.01 0 0.01 0.01 0 0.01 0.02 0 0.01 0.03 0 0.01 0.04 0 0.02 0.01 0 0.02 0.02 0 0.02 0.03 0 0.02 0.04 0 0.03 0.01 0 0.03 0.02 0 0.03 0.03 0 0.03 0.04 0 0.04 0.01 0 0.04 0.02 0 0.04 0.03 0 0.04 0.04 0 
</DataArray>
</Points>
<Cells>
<DataArray Name="connectivity" format="ascii" type="Int64">
0 19 20 2 19 18 24 20 18 17 28 24 17 16 32 28 16 11 15 32 2 20 21 3 20 24 25 21 24 28 29 25 28 32 33 29 32 15 14 33 3 21 22 4 21 25 26 22 25 29 30 26 29 33 34 30 33 14 13 34 4 22 23 5 22 26 27 23 26 30 31 27 30 34 35 31 34 13 12 35 5 23 7 1 23 27 8 7 27 31 9 8 31 35 10 9 35 12 6 10 1 7 50 37 7 8 54 50 8 9 58 54 9 10 62 58 10 6 49 62 37 50 51 38 50 54 55 51 54 58 59 55 58 62 63 59 62 49 48 63 38 51 52 39 51 55 56 52 55 59 60 56 59 63 64 60 63 48 47 64 39 52 53 40 52 56 57 53 56 60 61 57 60 64 65 61 64 47 46 65 40 53 42 36 53 57 43 42 57 61 44 43 61 65 45 44 65 46 41 45 11 79 80 15 79 78 84 80 78 77 88 84 77 76 92 88 76 71 75 92 15 80 81 14 80 84 85 81 84 88 89 85 88 92 93 89 92 75 74 93 14 81 82 13 81 85 86 82 85 89 90 86 89 93 94 90 93 74 73 94 13 82 83 12 82 86 87 83 86 90 91 87 90 94 95 91 94 73 72 95 12 83 67 6 83 87 68 67 87 91 69 68 91 95 70 69 95 72 66 70 6 67 105 49 67 68 109 105 68 69 113 109 69 70 117 113 70 66 104 117 49 105 106 48 105 109 110 106 109 113 114 110 113 117 118 114 117 104 103 118 48 106 107 47 106 110 111 107 110 114 115 111 114 118 119 115 118 103 102 119 47 107 108 46 107 111 112 108 111 115 116 112 115 119 120 116 119 102 101 120 46 108 97 41 108 112 98 97 112 116 99 98 116 120 100 99 120 101 96 100 
</DataArray>
<DataArray Name="offsets" format="ascii" type="Int64">
4 8 12 16 20 24 28 32 36 40 44 48 52 56 60 64 68 72 76 80 84 88 92 96 100 104 108 112 116 120 124 128 132 136 140 144 148 152 156 160 164 168 172 176 180 184 188 192 196 200 204 208 212 216 220 224 228 232 236 240 244 248 252 256 260 264 268 272 276 280 284 288 292 296 300 304 308 312 316 320 324 328 332 336 340 344 348 352 356 360 364 368 372 376 380 384 388 392 396 400 
</DataArray>
<DataArray Name="types" format="ascii" type="Int8">
9 9 9 9 9 9 9 9 9 9 9 9 9 9 9 9 9 9 9 9 9 9 9 9 9 9 9 9 9 9 9 9 9 9 9 9 9 9 9 9 9 9 9 9 9 9 9 9 9 9 9 9 9 9 9 9 9 9 9 9 9 9 9 9 9 9 9 9 9 9 9 9 9 9 9 9 9 9 9 9 9 9 9 9 9 9 9 9 9 9 9 9 9 9 9 9 9 9 9 9 
</DataArray>
</Cells>
</Piece>
</UnstructuredGrid>
</VTKFile>
