<?xml version="1.0"?>
<VTKFile byte_order="LittleEndian" type="UnstructuredGrid" version="0.1">
<UnstructuredGrid>
<Piece NumberOfCells="100" NumberOfPoints="121">
<PointData>
<DataArray Name="Warping_X" format="ascii" type="Float64">
0.0364159 0.0141494 0.0284187 0.0221772 0.0177174 0.0150414 3.50557e-05 0.0149113 0.0138807 0.0110576 0.00644227 0.0223248 0.00092691 0.00360265 0.00806287 0.0143081 0.0287333 0.0333506 0.0361694 0.0371889 0.0291789 0.0229388 0.0184793 0.0158033 0.0281441 0.0219062 0.0174482 0.0147727 0.0253225 0.019083 0.0146249 0.0119495 0.0207129 0.0144694 0.0100097 0.00733412 0.0364159 0.0150414 0.0177174 0.0221772 0.0284187 0.0223248 0.0371889 0.0361694 0.0333506 0.0287333 0.0143081 0.00806287 0.00360265 0.00092691 0.0158033 0.0184793 0.0229388 0.0291789 0.0147727 0.0174482 0.0219062 0.0281441 0.0119495 0.0146249 0.019083 0.0253225 0.00733412 0.0100097 0.0144694 0.0207129 -0.0588669 -0.00816853 -0.0181597 -0.0299391 -0.0435079 -0.0365471 -0.0579728 -0.0552902 -0.0508188 -0.0445614 -0.0211766 -0.0075966 0.00418573 0.0141661 0.00610822 -0.000138178 -0.00459972 -0.00727633 -0.00387081 -0.0101252 -0.0145888 -0.017267 -0.0156432 -0.0218977 -0.0263654 -0.0290457 -0.0292046 -0.035461 -0.0399318 -0.042614 -0.0365471 0.0141661 0.00418573 -0.0075966 -0.0211766 -0.0445614 -0.0508188 -0.0552902 -0.0579728 -0.00727633 -0.00459972 -0.000138178 0.00610822 -0.017267 -0.0145888 -0.0101252 -0.00387081 -0.0290457 -0.0263654 -0.0218977 -0.0156432 -0.042614 -0.0399318 -0.035461 -0.0292046 
</DataArray>
<DataArray Name="Warping_Y" format="ascii" type="Float64">
-0.00813081 8.8086e-18 -0.00652408 -0.00489959 -0.00326804 -0.00163434 2.59343e-17 1.56152e-17 1.83644e-17 2.23946e-17 2.5795e-17 0.0363891 0.0072829 0.0145657 0.0218477 0.0291255 0.0275057 0.0185792 0.00965077 0.000729211 0.000592877 0.00044728 0.000298342 0.000149105 0.00772184 0.00579411 0.00386362 0.00193196 0.014862 0.0111448 0.00742983 0.00371502 0.0219966 0.0164957 0.0109971 0.00549866 0.00813081 0.00163434 0.00326804 0.00489959 0.00652408 -0.0363891 -0.000729211 -0.00965077 -0.0185792 -0.0275057 -0.0291255 -0.0218477 -0.0145657 -0.0072829 -0.000149105 -0.000298342 -0.00044728 -0.000592877 -0.00193196 -0.00386362 -0.00579411 -0.00772184 -0.00371502 -0.00742983 -0.0111448 -0.014862 -0.00549866 -0.0109971 -0.0164957 -0.0219966 -6.74623e-18 5.06203e-18 -1.0803e-17 -1.95107e-17 -1.62856e-17 0.0811256 0.0162333 0.0324666 0.048698 0.0649215 0.072249 0.0633094 0.0543547 0.0453884 0.0362983 0.0272231 0.0181485 0.00907409 0.0434771 0.0326019 0.0217322 0.0108655 0.050642 0.0379748 0.0253133 0.0126558 0.0577886 0.0433374 0.0288904 0.0144449 -0.0811256 -0.0453884 -0.0543547 -0.0633094 -0.072249 -0.0649215 -0.048698 -0.0324666 -0.0162333 -0.00907409 -0.0181485 -0.0272231 -0.0362983 -0.0108655 -0.0217322 -0.0326019 -0.0434771 -0.0126558 -0.0253133 -0.0379748 -0.050642 -0.0144449 -0.0288904 -0.0433374 -0.0577886 
</DataArray>
<DataArray Name="Warping_Z" format="ascii" type="Float64">
0 0 0 0 0 0 0 0 0 0 0 0 0 0 0 0 0 0 0 0 0 0 0 0 0 0 0 0 0 0 0 0 0 0 0 0 0 0 0 0 0 0 0 0 0 0 0 0 0 0 0 0 0 0 0 0 0 0 0 0 0 0 0 0 0 0 0 0 0 0 0 0 0 0 0 0 0 0 0 0 0 0 0 0 0 0 0 0 0 0 0 0 0 0 0 0 0 0 0 0 0 0 0 0 0 0 0 0 0 0 0 0 0 0 0 0 0 0 0 0 0 
</DataArray>
</PointData>
<CellData>
<DataArray Name="MaterialId" format="ascii" type="Float64">
1 1 1 1 1 1 1 1 1 1 1 1 1 1 1 1 1 1 1 1 1 1 1 1 1 1 1 1 1 1 1 1 1 1 1 1 1 1 1 1 1 1 1 1 1 1 1 1 1 1 2 2 2 2 2 2 2 2 2 2 2 2 2 2 2 2 2 2 2 2 2 2 2 2 2 2 2 2 2 2 2 2 2 2 2 2 2 2 2 2 2 2 2 2 2 2 2 2 2 2 
</DataArray>
<DataArray Name="FiberAngle" format="ascii" type="Float64">
0 0 0 0 0 0 0 0 0 0 0 0 0 0 0 0 0 0 0 0 0 0 0 0 0 0 0 0 0 0 0 0 0 0 0 0 0 0 0 0 0 0 0 0 0 0 0 0 0 0 0 0 0 0 0 0 0 0 0 0 0 0 0 0 0 0 0 0 0 0 0 0 0 0 0 0 0 0 0 0 0 0 0 0 0 0 0 0 0 0 0 0 0 0 0 0 0 0 0 0 
</DataArray>
<DataArray Name="Strain_11" format="ascii" type="Float64">
0.0766579 -0.10271 -0.282023 -0.461343 -0.640666 0.076088 -0.103366 -0.282243 -0.461159 -0.640565 0.076171 -0.103181 -0.282329 -0.46144 -0.640677 0.0761859 -0.103083 -0.282326 -0.461528 -0.640713 0.0761862 -0.103061 -0.282314 -0.461537 -0.640721 0.0761862 -0.103061 -0.282314 -0.461537 -0.640721 0.0761859 -0.103083 -0.282326 -0.461528 -0.640713 0.076171 -0.103181 -0.282329 -0.46144 -0.640677 0.076088 -0.103366 -0.282243 -0.461159 -0.640565 0.0766579 -0.10271 -0.282023 -0.461343 -0.640666 -0.817929 -0.997972 -1.17774 -1.35707 -1.53636 -0.820046 -0.998302 -1.17724 -1.35624 -1.53573 -0.820171 -0.998805 -1.17745 -1.35649 -1.5358 -0.820281 -0.998988 -1.17776 -1.35674 -1.53586 -0.820342 -0.999093 -1.17791 -1.35685 -1.53589 -0.820342 -0.999093 -1.17791 -1.35685 -1.53589 -0.820281 -0.998988 -1.17776 -1.35674 -1.53586 -0.820171 -0.998805 -1.17745 -1.35649 -1.5358 -0.820046 -0.998302 -1.17724 -1.35624 -1.53573 -0.817929 -0.997972 -1.17774 -1.35707 -1.53636 
</DataArray>
<DataArray Name="Strain_22" format="ascii" type="Float64">
0.0735198 -0.103263 -0.282308 -0.461319 -0.638638 0.0739446 -0.103666 -0.282245 -0.460904 -0.638934 0.0741306 -0.103971 -0.282274 -0.460678 -0.63903 0.0742231 -0.104045 -0.282323 -0.460664 -0.639063 0.0742618 -0.104053 -0.282349 -0.460684 -0.639078 0.0742618 -0.104053 -0.282349 -0.460684 -0.639078 0.0742231 -0.104045 -0.282323 -0.460664 -0.639063 0.0741306 -0.103971 -0.282274 -0.460678 -0.63903 0.0739446 -0.103666 -0.282245 -0.460904 -0.638934 0.0735198 -0.103263 -0.282308 -0.461319 -0.638638 -0.817686 -0.998383 -1.17725 -1.35639 -1.53323 -0.81765 -0.997521 -1.17712 -1.35592 -1.53374 -0.81783 -0.997212 -1.17656 -1.35543 -1.53392 -0.81786 -0.997059 -1.17621 -1.35515 -1.53394 -0.817849 -0.996978 -1.17607 -1.35504 -1.53391 -0.817849 -0.996978 -1.17607 -1.35504 -1.53391 -0.81786 -0.997059 -1.17621 -1.35515 -1.53394 -0.81783 -0.997212 -1.17656 -1.35543 -1.53392 -0.81765 -0.997521 -1.17712 -1.35592 -1.53374 -0.817686 -0.998383 -1.17725 -1.35639 -1.53323 
</DataArray>
<DataArray Name="Strain_12" format="ascii" type="Float64">
-0.00151752 0.000757235 0.000759283 0.000628015 -0.00124243 -0.000886933 -0.000111524 0.000668724 0.000118035 -0.000390824 -0.000299984 -0.000265455 4.60121e-05 2.35514e-05 3.5446e-05 -0.000106179 -0.000170028 -8.59983e-05 -2.63006e-06 7.31329e-05 -2.85224e-05 -5.55396e-05 -3.82125e-05 -4.24795e-06 2.67474e-05 2.85224e-05 5.55396e-05 3.82125e-05 4.24795e-06 -2.67474e-05 0.000106179 0.000170028 8.59983e-05 2.63006e-06 -7.31329e-05 0.000299984 0.000265455 -4.60121e-05 -2.35514e-05 -3.5446e-05 0.000886933 0.000111524 -0.000668724 -0.000118035 0.000390824 0.00151752 -0.000757235 -0.000759283 -0.000628015 0.00124243 0.0048659 0.00153639 0.00082302 0.000577401 -0.00164863 0.00282338 0.00284659 0.00145066 -8.06468e-05 -0.00101477 0.00181925 0.00187023 0.00113208 5.86575e-05 -0.000275921 0.00108356 0.00101518 0.000644909 0.000183537 -1.01654e-05 0.000356949 0.000322644 0.000212454 8.54619e-05 2.02429e-05 -0.000356949 -0.000322644 -0.000212454 -8.54619e-05 -2.02429e-05 -0.00108356 -0.00101518 -0.000644909 -0.000183537 1.01654e-05 -0.00181925 -0.00187023 -0.00113208 -5.86575e-05 0.000275921 -0.00282338 -0.00284659 -0.00145066 8.06468e-05 0.00101477 -0.0048659 -0.00153639 -0.00082302 -0.000577401 0.00164863 
</DataArray>
<DataArray Name="Strain_13" format="ascii" type="Float64">
0 0 0 0 0 0 0 0 0 0 0 0 0 0 0 0 0 0 0 0 0 0 0 0 0 0 0 0 0 0 0 0 0 0 0 0 0 0 0 0 0 0 0 0 0 0 0 0 0 0 0 0 0 0 0 0 0 0 0 0 0 0 0 0 0 0 0 0 0 0 0 0 0 0 0 0 0 0 0 0 0 0 0 0 0 0 0 0 0 0 0 0 0 0 0 0 0 0 0 0 
</DataArray>
<DataArray Name="Strain_23" format="ascii" type="Float64">
0 0 0 0 0 0 0 0 0 0 0 0 0 0 0 0 0 0 0 0 0 0 0 0 0 0 0 0 0 0 0 0 0 0 0 0 0 0 0 0 0 0 0 0 0 0 0 0 0 0 0 0 0 0 0 0 0 0 0 0 0 0 0 0 0 0 0 0 0 0 0 0 0 0 0 0 0 0 0 0 0 0 0 0 0 0 0 0 0 0 0 0 0 0 0 0 0 0 0 0 
</DataArray>
<DataArray Name="Strain_33" format="ascii" type="Float64">
1 1 1 1 1 1 1 1 1 1 1 1 1 1 1 1 1 1 1 1 1 1 1 1 1 1 1 1 1 1 1 1 1 1 1 1 1 1 1 1 1 1 1 1 1 1 1 1 1 1 1 1 1 1 1 1 1 1 1 1 1 1 1 1 1 1 1 1 1 1 1 1 1 1 1 1 1 1 1 1 1 1 1 1 1 1 1 1 1 1 1 1 1 1 1 1 1 1 1 1 
</DataArray>
<DataArray Name="Stress_11" format="ascii" type="Float64">
38.3375 13.4971 -11.4 -36.2969 -61.1473 38.286 13.4131 -11.4226 -36.265 -61.1443 38.3004 13.4252 -11.433 -36.2899 -61.1594 38.3046 13.4339 -11.4341 -36.2994 -61.1643 38.3057 13.4362 -11.4334 -36.3008 -61.1656 38.3057 13.4362 -11.4334 -36.3008 -61.1656 38.3046 13.4339 -11.4341 -36.2994 -61.1643 38.3004 13.4252 -11.433 -36.2899 -61.1594 38.286 13.4131 -11.4226 -36.265 -61.1443 38.3375 13.4971 -11.4 -36.2969 -61.1473 -8.58167 -11.0841 -13.5783 -16.0685 -18.5519 -8.6051 -11.0854 -13.5725 -16.058 -18.5462 -8.60698 -11.0901 -13.5732 -16.0594 -18.5476 -8.60829 -11.0917 -13.5757 -16.0614 -18.5483 -8.60893 -11.0926 -13.5769 -16.0623 -18.5485 -8.60893 -11.0926 -13.5769 -16.0623 -18.5485 -8.60829 -11.0917 -13.5757 -16.0614 -18.5483 -8.60698 -11.0901 -13.5732 -16.0594 -18.5476 -8.6051 -11.0854 -13.5725 -16.058 -18.5462 -8.58167 -11.0841 -13.5783 -16.0685 -18.5519 
</DataArray>
<DataArray Name="Stress_22" format="ascii" type="Float64">
38.076 13.4511 -11.4238 -36.295 -60.9783 38.1074 13.388 -11.4229 -36.2437 -61.0084 38.1304 13.3593 -11.4285 -36.2264 -61.0222 38.1411 13.3538 -11.4339 -36.2273 -61.0268 38.1454 13.3535 -11.4364 -36.2298 -61.0287 38.1454 13.3535 -11.4364 -36.2298 -61.0287 38.1411 13.3538 -11.4339 -36.2273 -61.0268 38.1304 13.3593 -11.4285 -36.2264 -61.0222 38.1074 13.388 -11.4229 -36.2437 -61.0084 38.076 13.4511 -11.4238 -36.295 -60.9783 -8.57964 -11.0875 -13.5742 -16.0628 -18.5258 -8.58513 -11.0788 -13.5715 -16.0553 -18.5296 -8.58748 -11.0768 -13.5658 -16.0505 -18.5319 -8.58811 -11.0756 -13.5628 -16.0481 -18.5323 -8.58816 -11.075 -13.5616 -16.0472 -18.532 -8.58816 -11.075 -13.5616 -16.0472 -18.532 -8.58811 -11.0756 -13.5628 -16.0481 -18.5323 -8.58748 -11.0768 -13.5658 -16.0505 -18.5319 -8.58513 -11.0788 -13.5715 -16.0553 -18.5296 -8.57964 -11.0875 -13.5742 -16.0628 -18.5258 
</DataArray>
<DataArray Name="Stress_12" format="ascii" type="Float64">
-0.0632303 0.0315517 0.0316371 0.0261675 -0.0517681 -0.0369558 -0.00464687 0.0278637 0.00491816 -0.0162844 -0.0124994 -0.0110607 0.00191719 0.000981318 0.00147693 -0.00442415 -0.00708457 -0.00358329 -0.000109587 0.00304723 -0.00118844 -0.00231417 -0.0015922 -0.000176999 0.00111448 0.00118844 0.00231417 0.0015922 0.000176999 -0.00111448 0.00442415 0.00708457 0.00358329 0.000109587 -0.00304723 0.0124994 0.0110607 -0.00191719 -0.000981318 -0.00147693 0.0369558 0.00464687 -0.0278637 -0.00491816 0.0162844 0.0632303 -0.0315517 -0.0316371 -0.0261675 0.0517681 0.0202747 0.00640169 0.00342928 0.00240586 -0.00686936 0.0117642 0.0118609 0.00604448 -0.000336031 -0.00422824 0.00758026 0.00779269 0.00471704 0.000244408 -0.00114968 0.00451487 0.00422997 0.00268714 0.000764745 -4.23562e-05 0.0014873 0.00134436 0.000885231 0.000356094 8.43459e-05 -0.0014873 -0.00134436 -0.000885231 -0.000356094 -8.43459e-05 -0.00451487 -0.00422997 -0.00268714 -0.000764745 4.23562e-05 -0.00758026 -0.00779269 -0.00471704 -0.000244408 0.00114968 -0.0117642 -0.0118609 -0.00604448 0.000336031 0.00422824 -0.0202747 -0.00640169 -0.00342928 -0.00240586 0.00686936 
</DataArray>
<DataArray Name="Stress_13" format="ascii" type="Float64">
0 0 0 0 0 0 0 0 0 0 0 0 0 0 0 0 0 0 0 0 0 0 0 0 0 0 0 0 0 0 0 0 0 0 0 0 0 0 0 0 0 0 0 0 0 0 0 0 0 0 0 0 0 0 0 0 0 0 0 0 0 0 0 0 0 0 0 0 0 0 0 0 0 0 0 0 0 0 0 0 0 0 0 0 0 0 0 0 0 0 0 0 0 0 0 0 0 0 0 0 
</DataArray>
<DataArray Name="Stress_23" format="ascii" type="Float64">
0 0 0 0 0 0 0 0 0 0 0 0 0 0 0 0 0 0 0 0 0 0 0 0 0 0 0 0 0 0 0 0 0 0 0 0 0 0 0 0 0 0 0 0 0 0 0 0 0 0 0 0 0 0 0 0 0 0 0 0 0 0 0 0 0 0 0 0 0 0 0 0 0 0 0 0 0 0 0 0 0 0 0 0 0 0 0 0 0 0 0 0 0 0 0 0 0 0 0 0 
</DataArray>
<DataArray Name="Stress_33" format="ascii" type="Float64">
115.283 105.39 95.4352 85.4816 75.5749 115.279 105.36 95.4309 85.4982 75.5695 115.286 105.357 95.4277 85.4967 75.5637 115.289 105.358 95.4264 85.4947 75.5618 115.29 105.358 95.426 85.4939 75.5612 115.29 105.358 95.426 85.4939 75.5612 115.289 105.358 95.4264 85.4947 75.5618 115.286 105.357 95.4277 85.4967 75.5637 115.279 105.36 95.4309 85.4982 75.5695 115.283 105.39 95.4352 85.4816 75.5749 6.56774 5.56568 4.56949 3.57373 2.58447 6.56196 5.56716 4.57121 3.57733 2.58483 6.56111 5.56662 4.57219 3.57801 2.5841 6.56072 5.56654 4.57229 3.5781 2.5839 6.56058 5.56647 4.5723 3.57809 2.58389 6.56058 5.56647 4.5723 3.57809 2.58389 6.56072 5.56654 4.57229 3.5781 2.5839 6.56111 5.56662 4.57219 3.57801 2.5841 6.56196 5.56716 4.57121 3.57733 2.58483 6.56774 5.56568 4.56949 3.57373 2.58447 
</DataArray>
</CellData>
<Points>
<DataArray NumberOfComponents="3" format="ascii" type="Float64">
-0.05 -0.05 0 -0.05 0 0 -0.05 -0.04 0 -0.05 -0.03 0 -0.05 -0.02 0 -0.05 -0.01 0 0 0 0 -0.04 0 0 -0.03 0 0 -0.02 0 0 -0.01 0 0 0 -0.05 0 0 -0.01 0 0 -0.02 0 0 -0.03 0 0 -0.04 0 -0.01 -0.05 0 -0.02 -0.05 0 -0.03 -0.05 0 -0.04 -0.05 0 -0.04 -0.04 0 -0.04 -0.03 0 -0.04 -0.02 0 -0.04 -0.01 0 -0.03 -0.04 0 -0.03 -0.03 0 -0.03 -0.02 0 -0.03 -0.01 0 -0.02 -0.04 0 -0.02 -0.03 0 -0.02 -0.02 0 -0.02 -0.01 0 -0.01 -0.04 0 -0.01 -0.03 0 -0.01 -0.02 0 -0.01 -0.01 0 -0.05 0.05 0 -0.05 0.01 0 -0.05 0.02 0 -0.05 0.03 0 -0.05 0.04 0 0 0.05 0 -0.04 0.05 0 -0.03 0.05 0 -0.02 0.05 0 -0.01 0.05 0 0 0.04 0 0 0.03 0 0 0.02 0 0 0.01 0 -0.04 0.01 0 -0.04 0.02 0 -0.04 0.03 0 -0.04 0.04 0 -0.03 0.01 0 -0.03 0.02 0 -0.03 0.03 0 -0.03 0.04 0 -0.02 0.01 0 -0.02 0.02 0 -0.02 0.03 0 -0.02 0.04 0 -0.01 0.01 0 -0.01 0.02 0 -0.01 0.03 0 -0.01 0.04 0 0.05 0 0 0.01 0 0 0.02 0 0 0.03 0 0 0.04 0 0 0.05 -0.05 0 0.05 -0.01 0 0.05 -0.02 0 0.05 -0.03 0 0.05 -0.04 0 0.04 -0.05 0 0.03 -0.05 0 0.02 -0.05 0 0.01 -0.05 0 0.01 -0.04 0 0.01 -0.03 0 0.01 -0.02 0 0.01 -0.01 0 0.02 -0.04 0 0.02 -0.03 0 0.02 -0.02 0 0.02 -0.01 0 0.03 -0.04 0 0.03 -0.03 0 0.03 -0.02 0 0.03 -0.01 0 0.04 -0.04 0 0.04 -0.03 0 0.04 -0.02 0 0.04 -0.01 0 0.05 0.05 0 0.01 0.05 0 0.02 0.05 0 0.03 0.05 0 0.04 0.05 0 0.05 0.04 0 0.05 0.03 0 0.05 0.02 0 0.05 0.01 0 0.01 0.01 0 0.01 0.02 0 0.01 0.03 0 0.01 0.04 0 0.02 0.01 0 0.02 0.02 0 0.02 0.03 0 0.02 0.04 0 0.03 0.01 0 0.03 0.02 0 0.03 0.03 0 0.03 0.04 0 0.04 0.01 0 0.04 0.02 0 0.04 0.03 0 0.04 0.04 0 
</DataArray>
</Points>
<Cells>
<DataArray Name="connectivity" format="ascii" type="Int64">
0 19 20 2 19 18 24 20 18 17 28 24 17 16 32 28 16 11 15 32 2 20 21 3 20 24 25 21 24 28 29 25 28 32 33 29 32 15 14 33 3 21 22 4 21 25 26 22 25 29 30 26 29 33 34 30 33 14 13 34 4 22 23 5 22 26 27 23 26 30 31 27 30 34 35 31 34 13 12 35 5 23 7 1 23 27 8 7 27 31 9 8 31 35 10 9 35 12 6 10 1 7 50 37 7 8 54 50 8 9 58 54 9 10 62 58 10 6 49 62 37 50 51 38 50 54 55 51 54 58 59 55 58 62 63 59 62 49 48 63 38 51 52 39 51 55 56 52 55 59 60 56 59 63 64 60 63 48 47 64 39 52 53 40 52 56 57 53 56 60 61 57 60 64 65 61 64 47 46 65 40 53 42 36 53 57 43 42 57 61 44 43 61 65 45 44 65 46 41 45 11 79 80 15 79 78 84 80 78 77 88 84 77 76 92 88 76 71 75 92 15 80 81 14 80 84 85 81 84 88 89 85 88 92 93 89 92 75 74 93 14 81 82 13 81 85 86 82 85 89 90 86 89 93 94 90 93 74 73 94 13 82 83 12 82 86 87 83 86 90 91 87 90 94 95 91 94 73 72 95 12 83 67 6 83 87 68 67 87 91 69 68 91 95 70 69 95 72 66 70 6 67 105 49 67 68 109 105 68 69 113 109 69 70 117 113 70 66 104 117 49 105 106 48 105 109 110 106 109 113 114 110 113 117 118 114 117 104 103 118 48 106 107 47 106 110 111 107 110 114 115 111 114 118 119 115 118 103 102 119 47 107 108 46 107 111 112 108 111 115 116 112 115 119 120 116 119 102 101 120 46 108 97 41 108 112 98 97 112 116 99 98 116 120 100 99 120 101 96 100 
</DataArray>
<DataArray Name="offsets" format="ascii" type="Int64">
4 8 12 16 20 24 28 32 36 40 44 48 52 56 60 64 68 72 76 80 84 88 92 96 100 104 108 112 116 120 124 128 132 136 140 144 148 152 156 160 164 168 172 176 180 184 188 192 196 200 204 208 212 216 220 224 228 232 236 240 244 248 252 256 260 264 268 272 276 280 284 288 292 296 300 304 308 312 316 320 324 328 332 336 340 344 348 352 356 360 364 368 372 376 380 384 388 392 396 400 
</DataArray>
<DataArray Name="types" format="ascii" type="Int8">
9 9 9 9 9 9 9 9 9 9 9 9 9 9 9 9 9 9 9 9 9 9 9 9 9 9 9 9 9 9 9 9 9 9 9 9 9 9 9 9 9 9 9 9 9 9 9 9 9 9 9 9 9 9 9 9 9 9 9 9 9 9 9 9 9 9 9 9 9 9 9 9 9 9 9 9 9 9 9 9 9 9 9 9 9 9 9 9 9 9 9 9 9 9 9 9 9 9 9 9 
</DataArray>
</Cells>
</Piece>
</UnstructuredGrid>
</VTKFile>
