<?xml version="1.0"?>
<VTKFile byte_order="LittleEndian" type="UnstructuredGrid" version="0.1">
<UnstructuredGrid>
<Piece NumberOfCells="288" NumberOfPoints="384">
<PointData>
<DataArray Name="Warping_X" format="ascii" type="Float64">
-0.0267785 0.572452 0.0519317 0.128964 0.203121 0.273188 0.338036 0.396606 0.447961 0.491269 0.525841 0.551143 0.566749 0.617532 -0.0234135 0.0607699 0.143284 0.222697 0.297728 0.367164 0.429868 0.48482 0.531147 0.568079 0.595043 0.611611 0.664291 -0.0202967 0.069859 0.158051 0.242928 0.32312 0.39732 0.464323 0.523029 0.572467 0.611859 0.640572 0.658137 0.712716 -0.0168222 0.0791323 0.173231 0.263787 0.349346 0.428498 0.499949 0.562542 0.615243 0.657188 0.687703 0.706316 3.69261e-11 0.568168 0.554015 0.530237 0.497293 0.455752 0.406337 0.34991 0.287445 0.220028 0.14882 0.0750547 3.693e-11 0.612726 0.59731 0.57157 0.535971 0.49112 0.437823 0.376988 0.309666 0.237027 0.160315 0.0808501 3.69298e-11 0.658949 0.642234 0.614445 0.57609 0.527838 0.470504 0.405092 0.332739 0.254682 0.172257 0.0868656 3.69264e-11 0.706824 0.688759 0.658869 0.617666 0.56586 0.504355 0.434219 0.356646 0.272964 0.184616 0.0930978 -0.572452 -0.0750547 -0.14882 -0.220028 -0.287445 -0.34991 -0.406337 -0.455752 -0.497293 -0.530237 -0.554015 -0.568168 -0.617532 -0.0808501 -0.160315 -0.237027 -0.309666 -0.376988 -0.437823 -0.49112 -0.535971 -0.57157 -0.59731 -0.612726 -0.664291 -0.0868656 -0.172257 -0.254682 -0.332739 -0.405092 -0.470504 -0.527838 -0.57609 -0.614445 -0.642234 -0.658949 -0.712716 -0.0930978 -0.184616 -0.272964 -0.356646 -0.434219 -0.504355 -0.56586 -0.617666 -0.658869 -0.688759 -0.706824 0.0267785 -0.566749 -0.551143 -0.525841 -0.491269 -0.447961 -0.396606 -0.338036 -0.273188 -0.203121 -0.128964 -0.0519317 0.0234135 -0.611611 -0.595043 -0.568079 -0.531147 -0.48482 -0.429868 -0.367164 -0.297728 -0.222697 -0.143284 -0.0607699 0.0202967 -0.658137 -0.640572 -0.611859 -0.572467 -0.523029 -0.464323 -0.39732 -0.32312 -0.242928 -0.158051 -0.069859 0.0168222 -0.706316 -0.687703 -0.657188 -0.615243 -0.562542 -0.499949 -0.428498 -0.349346 -0.263787 -0.173231 -0.0791323 0.628326 0.104806 0.181813 0.256391 0.327198 0.392955 0.452469 0.504671 0.548616 0.583506 0.608717 0.623746 0.67396 0.107795 0.190955 0.271511 0.347989 0.419026 0.483335 0.539762 0.587305 0.625083 0.652426 0.668823 0.721215 0.11095 0.200541 0.287264 0.369604 0.446088 0.515355 0.576157 0.627388 0.668151 0.697709 0.715507 0.770104 0.11438 0.210527 0.303632 0.392036 0.474154 0.548523 0.61383 0.668898 0.712737 0.744563 0.763812 -1.73805e-10 0.622329 0.605849 0.579116 0.542598 0.496887 0.442745 0.381086 0.312945 0.239485 0.161952 0.0816693 -1.73977e-10 0.66771 0.650165 0.621601 0.582494 0.533475 0.475394 0.409216 0.336064 0.257192 0.173935 0.0877137 -1.73822e-10 0.7147 0.696057 0.665578 0.623782 0.571367 0.509197 0.438339 0.360008 0.275534 0.186352 0.0939708 -1.73405e-10 0.763309 0.743518 0.711072 0.666497 0.610537 0.544147 0.468465 0.38477 0.294489 0.199176 0.10044 -0.628326 -0.0816693 -0.161952 -0.239485 -0.312945 -0.381086 -0.442745 -0.496887 -0.542598 -0.579116 -0.605849 -0.622329 -0.67396 -0.0877137 -0.173935 -0.257192 -0.336064 -0.409216 -0.475394 -0.533475 -0.582494 -0.621601 -0.650165 -0.66771 -0.721215 -0.0939708 -0.186352 -0.275534 -0.360008 -0.438339 -0.509197 -0.571367 -0.623782 -0.665578 -0.696057 -0.7147 -0.770104 -0.10044 -0.199176 -0.294489 -0.38477 -0.468465 -0.544147 -0.610537 -0.666497 -0.711072 -0.743518 -0.763309 -0.623746 -0.608717 -0.583506 -0.548616 -0.504671 -0.452469 -0.392955 -0.327198 -0.256391 -0.181813 -0.104806 -0.668823 -0.652426 -0.625083 -0.587305 -0.539762 -0.483335 -0.419026 -0.347989 -0.271511 -0.190955 -0.107795 -0.715507 -0.697709 -0.668151 -0.627388 -0.576157 -0.515355 -0.446088 -0.369604 -0.287264 -0.200541 -0.11095 -0.763812 -0.744563 -0.712737 -0.668898 -0.61383 -0.548523 -0.474154 -0.392036 -0.303632 -0.210527 -0.11438 
</DataArray>
<DataArray Name="Warping_Y" format="ascii" type="Float64">
-0.600326 0.0297954 -0.589648 -0.56941 -0.539834 -0.50135 -0.454572 -0.400199 -0.339122 -0.272282 -0.200789 -0.125787 -0.0485106 0.0295617 -0.645626 -0.634388 -0.612838 -0.581251 -0.540092 -0.489992 -0.431742 -0.36625 -0.294576 -0.217888 -0.137407 -0.0544796 0.0293088 -0.692662 -0.680806 -0.657908 -0.624234 -0.580303 -0.526776 -0.464472 -0.394426 -0.317736 -0.235637 -0.149491 -0.0606866 0.0290344 -0.741379 -0.728879 -0.704602 -0.668795 -0.62198 -0.564885 -0.498422 -0.423631 -0.341744 -0.254057 -0.162017 -0.0671326 0.623215 0.107833 0.184306 0.257974 0.327606 0.392067 0.450258 0.501249 0.544164 0.578321 0.603121 0.618167 0.666699 0.113325 0.195419 0.274516 0.349275 0.418482 0.48098 0.535723 0.581817 0.618488 0.645127 0.661279 0.711855 0.119016 0.206958 0.29167 0.371771 0.445905 0.512852 0.571522 0.620901 0.660184 0.688733 0.70605 0.758643 0.124904 0.218896 0.309452 0.395072 0.474316 0.545899 0.608605 0.661408 0.703415 0.733915 0.752439 0.0297954 0.618167 0.603121 0.578321 0.544164 0.501249 0.450258 0.392067 0.327606 0.257974 0.184306 0.107833 0.0295617 0.661279 0.645127 0.618488 0.581817 0.535723 0.48098 0.418482 0.349275 0.274516 0.195419 0.113325 0.0293088 0.70605 0.688733 0.660184 0.620901 0.571522 0.512852 0.445905 0.371771 0.29167 0.206958 0.119016 0.0290344 0.752439 0.733915 0.703415 0.661408 0.608605 0.545899 0.474316 0.395072 0.309452 0.218896 0.124904 -0.600326 -0.0485106 -0.125787 -0.200789 -0.272282 -0.339122 -0.400199 -0.454572 -0.50135 -0.539834 -0.56941 -0.589648 -0.645626 -0.0544796 -0.137407 -0.217888 -0.294576 -0.36625 -0.431742 -0.489992 -0.540092 -0.581251 -0.612838 -0.634388 -0.692662 -0.0606866 -0.149491 -0.235637 -0.317736 -0.394426 -0.464472 -0.526776 -0.580303 -0.624234 -0.657908 -0.680806 -0.741379 -0.0671326 -0.162017 -0.254057 -0.341744 -0.423631 -0.498422 -0.564885 -0.62198 -0.668795 -0.704602 -0.728879 -0.0298137 -0.600664 -0.590309 -0.569424 -0.53844 -0.497989 -0.448805 -0.391828 -0.328067 -0.25871 -0.184989 -0.10824 -0.0295893 -0.645891 -0.634515 -0.611822 -0.578281 -0.534542 -0.481434 -0.419924 -0.351143 -0.276345 -0.196851 -0.114116 -0.0293414 -0.692708 -0.680263 -0.655692 -0.6195 -0.572371 -0.51517 -0.44899 -0.375012 -0.294565 -0.209119 -0.12018 -0.0290676 -0.741087 -0.727552 -0.701062 -0.662109 -0.611453 -0.550052 -0.479018 -0.399667 -0.313397 -0.221774 -0.126431 0.577489 0.0488823 0.126438 0.201499 0.272725 0.338875 0.39875 0.451331 0.495661 0.530992 0.556669 0.572258 0.624707 0.0552169 0.138788 0.219672 0.296408 0.367667 0.432184 0.488813 0.536576 0.574623 0.602288 0.619073 0.673584 0.0617864 0.151592 0.238478 0.320932 0.397476 0.466769 0.527619 0.578915 0.619774 0.649495 0.667535 0.724106 0.0685949 0.164834 0.257947 0.346293 0.428298 0.502554 0.567728 0.622695 0.666477 0.698294 0.717629 -0.0298137 0.572258 0.556669 0.530992 0.495661 0.451331 0.39875 0.338875 0.272725 0.201499 0.126438 0.0488823 -0.0295893 0.619073 0.602288 0.574623 0.536576 0.488813 0.432184 0.367667 0.296408 0.219672 0.138788 0.0552169 -0.0293414 0.667535 0.649495 0.619774 0.578915 0.527619 0.466769 0.397476 0.320932 0.238478 0.151592 0.0617864 -0.0290676 0.717629 0.698294 0.666477 0.622695 0.567728 0.502554 0.428298 0.346293 0.257947 0.164834 0.0685949 -0.10824 -0.184989 -0.25871 -0.328067 -0.391828 -0.448805 -0.497989 -0.53844 -0.569424 -0.590309 -0.600664 -0.114116 -0.196851 -0.276345 -0.351143 -0.419924 -0.481434 -0.534542 -0.578281 -0.611822 -0.634515 -0.645891 -0.12018 -0.209119 -0.294565 -0.375012 -0.44899 -0.51517 -0.572371 -0.6195 -0.655692 -0.680263 -0.692708 -0.126431 -0.221774 -0.313397 -0.399667 -0.479018 -0.550052 -0.611453 -0.662109 -0.701062 -0.727552 -0.741087 
</DataArray>
<DataArray Name="Warping_Z" format="ascii" type="Float64">
0 0 0 0 0 0 0 0 0 0 0 0 0 0 0 0 0 0 0 0 0 0 0 0 0 0 0 0 0 0 0 0 0 0 0 0 0 0 0 0 0 0 0 0 0 0 0 0 0 0 0 0 0 0 0 0 0 0 0 0 0 0 0 0 0 0 0 0 0 0 0 0 0 0 0 0 0 0 0 0 0 0 0 0 0 0 0 0 0 0 0 0 0 0 0 0 0 0 0 0 0 0 0 0 0 0 0 0 0 0 0 0 0 0 0 0 0 0 0 0 0 0 0 0 0 0 0 0 0 0 0 0 0 0 0 0 0 0 0 0 0 0 0 0 0 0 0 0 0 0 0 0 0 0 0 0 0 0 0 0 0 0 0 0 0 0 0 0 0 0 0 0 0 0 0 0 0 0 0 0 0 0 0 0 0 0 0 0 0 0 0 0 0 0 0 0 0 0 0 0 0 0 0 0 0 0 0 0 0 0 0 0 0 0 0 0 0 0 0 0 0 0 0 0 0 0 0 0 0 0 0 0 0 0 0 0 0 0 0 0 0 0 0 0 0 0 0 0 0 0 0 0 0 0 0 0 0 0 0 0 0 0 0 0 0 0 0 0 0 0 0 0 0 0 0 0 0 0 0 0 0 0 0 0 0 0 0 0 0 0 0 0 0 0 0 0 0 0 0 0 0 0 0 0 0 0 0 0 0 0 0 0 0 0 0 0 0 0 0 0 0 0 0 0 0 0 0 0 0 0 0 0 0 0 0 0 0 0 0 0 0 0 0 0 0 0 0 0 0 0 0 0 0 0 0 0 0 0 0 0 0 0 0 0 0 0 0 0 0 0 0 0 0 0 0 0 0 0 0 0 0 0 0 0 
</DataArray>
</PointData>
<CellData>
<DataArray Name="MaterialId" format="ascii" type="Float64">
1 1 1 1 1 1 1 1 1 1 1 1 1 1 1 1 1 1 1 1 1 1 1 1 1 1 1 1 1 1 1 1 1 1 1 1 1 1 1 1 1 1 1 1 1 1 1 1 1 1 1 1 1 1 1 1 1 1 1 1 1 1 1 1 1 1 1 1 1 1 1 1 1 1 1 1 1 1 1 1 1 1 1 1 1 1 1 1 1 1 1 1 1 1 1 1 1 1 1 1 1 1 1 1 1 1 1 1 1 1 1 1 1 1 1 1 1 1 1 1 1 1 1 1 1 1 1 1 1 1 1 1 1 1 1 1 1 1 1 1 1 1 1 1 2 2 2 2 2 2 2 2 2 2 2 2 2 2 2 2 2 2 2 2 2 2 2 2 2 2 2 2 2 2 2 2 2 2 2 2 2 2 2 2 2 2 2 2 2 2 2 2 2 2 2 2 2 2 2 2 2 2 2 2 2 2 2 2 2 2 2 2 2 2 2 2 2 2 2 2 2 2 2 2 2 2 2 2 2 2 2 2 2 2 2 2 2 2 2 2 2 2 2 2 2 2 2 2 2 2 2 2 2 2 2 2 2 2 2 2 2 2 2 2 2 2 2 2 2 2 2 2 2 2 2 2 2 2 2 2 2 2 2 2 2 2 2 2 
</DataArray>
<DataArray Name="FiberAngle" format="ascii" type="Float64">
0 0 0 0 0 0 0 0 0 0 0 0 0 0 0 0 0 0 0 0 0 0 0 0 0 0 0 0 0 0 0 0 0 0 0 0 0 0 0 0 0 0 0 0 0 0 0 0 0 0 0 0 0 0 0 0 0 0 0 0 0 0 0 0 0 0 0 0 0 0 0 0 0 0 0 0 0 0 0 0 0 0 0 0 0 0 0 0 0 0 0 0 0 0 0 0 0 0 0 0 0 0 0 0 0 0 0 0 0 0 0 0 0 0 0 0 0 0 0 0 0 0 0 0 0 0 0 0 0 0 0 0 0 0 0 0 0 0 0 0 0 0 0 0 0 0 0 0 0 0 0 0 0 0 0 0 0 0 0 0 0 0 0 0 0 0 0 0 0 0 0 0 0 0 0 0 0 0 0 0 0 0 0 0 0 0 0 0 0 0 0 0 0 0 0 0 0 0 0 0 0 0 0 0 0 0 0 0 0 0 0 0 0 0 0 0 0 0 0 0 0 0 0 0 0 0 0 0 0 0 0 0 0 0 0 0 0 0 0 0 0 0 0 0 0 0 0 0 0 0 0 0 0 0 0 0 0 0 0 0 0 0 0 0 0 0 0 0 0 0 0 0 0 0 0 0 0 0 0 0 0 0 0 0 0 0 0 0 
</DataArray>
<DataArray Name="Strain_11" format="ascii" type="Float64">
-13.6312 -13.5756 -13.4582 -13.2823 -13.0492 -12.7599 -12.4157 -12.0181 -11.569 -11.0705 -10.5247 -9.93412 -14.0751 -14.0136 -13.8927 -13.7132 -13.4749 -13.1789 -12.8265 -12.4191 -11.9586 -11.4469 -10.8862 -10.2788 -14.5169 -14.4546 -14.3314 -14.1477 -13.9037 -13.6005 -13.2393 -12.8217 -12.3491 -11.8236 -11.2474 -10.6227 -9.3013 -8.62915 -7.92047 -7.17851 -6.40637 -5.60726 -4.7849 -3.94229 -3.08342 -2.21156 -1.33064 -0.444154 -9.62741 -8.9347 -8.20374 -7.4375 -6.63953 -5.81305 -4.96146 -4.08877 -3.19851 -2.29449 -1.3806 -0.460867 -9.95217 -9.23859 -8.48487 -7.6944 -6.87044 -6.01641 -5.13618 -4.23333 -3.31205 -2.37634 -1.42988 -0.47733 0.444154 1.33064 2.21156 3.08342 3.94229 4.7849 5.60726 6.40637 7.17851 7.92047 8.62915 9.3013 0.460867 1.3806 2.29449 3.19851 4.08877 4.96146 5.81305 6.63953 7.4375 8.20374 8.9347 9.62741 0.47733 1.42988 2.37634 3.31205 4.23333 5.13618 6.01641 6.87044 7.6944 8.48487 9.23859 9.95217 9.93412 10.5247 11.0705 11.569 12.0181 12.4157 12.7599 13.0492 13.2823 13.4582 13.5756 13.6312 10.2788 10.8862 11.4469 11.9586 12.4191 12.8265 13.1789 13.4749 13.7132 13.8927 14.0136 14.0751 10.6227 11.2474 11.8236 12.3491 12.8217 13.2393 13.6005 13.9037 14.1477 14.3314 14.4546 14.5169 13.5291 13.465 13.3513 13.1801 12.9528 12.6705 12.3341 11.9451 11.505 11.0155 10.4787 9.89689 14.0713 14.0138 13.8937 13.7134 13.4746 13.1779 12.8249 12.4167 11.9555 11.4431 10.8817 10.2738 14.6173 14.5586 14.4317 14.2432 13.9932 13.6828 13.3135 12.8871 12.4053 11.8705 11.2851 10.6517 9.27222 8.6075 7.90537 7.16896 6.4013 5.6056 4.7856 3.94437 3.08601 2.21394 1.33229 0.444741 9.62194 8.92891 8.19779 7.43156 6.63378 5.80764 4.95656 4.08454 3.19507 2.29195 1.37905 0.460343 9.97308 9.25221 8.49222 7.69658 6.86864 6.01183 5.12999 4.2266 3.30574 2.37125 1.42659 0.476189 -0.444741 -1.33229 -2.21394 -3.08601 -3.94437 -4.7856 -5.6056 -6.4013 -7.16896 -7.90537 -8.6075 -9.27222 -0.460343 -1.37905 -2.29195 -3.19507 -4.08454 -4.95656 -5.80764 -6.63378 -7.43156 -8.19779 -8.92891 -9.62194 -0.476189 -1.42659 -2.37125 -3.30574 -4.2266 -5.12999 -6.01183 -6.86864 -7.69658 -8.49222 -9.25221 -9.97308 -9.89689 -10.4787 -11.0155 -11.505 -11.9451 -12.3341 -12.6705 -12.9528 -13.1801 -13.3513 -13.465 -13.5291 -10.2738 -10.8817 -11.4431 -11.9555 -12.4167 -12.8249 -13.1779 -13.4746 -13.7134 -13.8937 -14.0138 -14.0713 -10.6517 -11.2851 -11.8705 -12.4053 -12.8871 -13.3135 -13.6828 -13.9932 -14.2432 -14.4317 -14.5586 -14.6173 
</DataArray>
<DataArray Name="Strain_22" format="ascii" type="Float64">
-13.5669 -13.5101 -13.394 -13.2228 -12.9948 -12.7117 -12.3744 -11.9842 -11.5428 -11.052 -10.5136 -9.92995 -14.0758 -14.0133 -13.8944 -13.7144 -13.4757 -13.1793 -12.8264 -12.4187 -11.9577 -11.4455 -10.8843 -10.2766 -14.5815 -14.5154 -14.3922 -14.2038 -13.9549 -13.6457 -13.2778 -12.8529 -12.3729 -11.84 -11.2565 -10.6252 -9.30336 -8.63655 -7.9322 -7.19334 -6.4232 -5.62491 -4.80204 -3.95806 -3.09666 -2.22165 -1.3369 -0.44629 -9.62485 -8.93191 -8.20075 -7.43456 -6.63654 -5.81019 -4.95898 -4.0865 -3.19666 -2.29317 -1.37981 -0.460578 -9.94867 -9.22995 -8.47217 -7.67868 -6.85293 -5.99832 -5.11852 -4.21736 -3.29859 -2.36604 -1.42355 -0.475156 0.44629 1.3369 2.22165 3.09666 3.95806 4.80204 5.62491 6.4232 7.19334 7.9322 8.63655 9.30336 0.460578 1.37981 2.29317 3.19666 4.0865 4.95898 5.81019 6.63654 7.43456 8.20075 8.93191 9.62485 0.475156 1.42355 2.36604 3.29859 4.21736 5.11852 5.99832 6.85293 7.67868 8.47217 9.22995 9.94867 9.92995 10.5136 11.052 11.5428 11.9842 12.3744 12.7117 12.9948 13.2228 13.394 13.5101 13.5669 10.2766 10.8843 11.4455 11.9577 12.4187 12.8264 13.1793 13.4757 13.7144 13.8944 14.0133 14.0758 10.6252 11.2565 11.84 12.3729 12.8529 13.2778 13.6457 13.9549 14.2038 14.3922 14.5154 14.5815 13.5785 13.5351 13.4157 13.2408 13.0085 12.7202 12.3772 11.981 11.5335 11.0367 10.4927 9.90413 14.074 14.0111 13.8899 13.7108 13.4727 13.177 12.8249 12.418 11.9578 11.4465 10.8861 10.2791 14.5662 14.4888 14.3671 14.183 13.9387 13.6351 13.2734 12.8551 12.3818 11.8554 11.278 10.6521 9.27338 8.60338 7.89697 7.15728 6.38754 5.5909 4.7709 3.93091 3.07446 2.2052 1.32678 0.442877 9.62797 8.93551 8.20469 7.43868 6.64067 5.81419 4.96267 4.08973 3.19932 2.29514 1.38103 0.460989 9.98016 9.26495 8.50946 7.71696 6.89086 6.03453 5.15171 4.24634 3.3223 2.38362 1.43436 0.478804 -0.442877 -1.32678 -2.2052 -3.07446 -3.93091 -4.7709 -5.5909 -6.38754 -7.15728 -7.89697 -8.60338 -9.27338 -0.460989 -1.38103 -2.29514 -3.19932 -4.08973 -4.96267 -5.81419 -6.64067 -7.43868 -8.20469 -8.93551 -9.62797 -0.478804 -1.43436 -2.38362 -3.3223 -4.24634 -5.15171 -6.03453 -6.89086 -7.71696 -8.50946 -9.26495 -9.98016 -9.90413 -10.4927 -11.0367 -11.5335 -11.981 -12.3772 -12.7202 -13.0085 -13.2408 -13.4157 -13.5351 -13.5785 -10.2791 -10.8861 -11.4465 -11.9578 -12.418 -12.8249 -13.177 -13.4727 -13.7108 -13.8899 -14.0111 -14.074 -10.6521 -11.278 -11.8554 -12.3818 -12.8551 -13.2734 -13.6351 -13.9387 -14.183 -14.3671 -14.4888 -14.5662 
</DataArray>
<DataArray Name="Strain_12" format="ascii" type="Float64">
0.00306954 -0.0148209 -0.0212332 -0.0289333 -0.03594 -0.0416098 -0.0462767 -0.049583 -0.0515034 -0.0521464 -0.0514586 -0.049495 -0.0257664 0.00251932 0.00122125 0.00137227 0.00182917 0.0018696 0.00214937 0.00223349 0.00203762 0.00202139 0.00169605 0.00143832 0.0227381 0.0119614 0.0204179 0.0279177 0.0344737 0.040097 0.0443332 0.0475067 0.0493192 0.0497897 0.0489788 0.047009 -0.0465044 -0.0425312 -0.0379456 -0.0327519 -0.0272854 -0.0219818 -0.0167247 -0.0120683 -0.00802295 -0.00481611 -0.00263038 -0.00148406 0.00103622 0.00050968 0.000139035 -0.000494202 -0.00103945 -0.0014697 -0.0020068 -0.00244806 -0.00280362 -0.00311234 -0.00328285 -0.0034134 0.0439505 0.0400122 0.035303 0.0302214 0.0249124 0.0194547 0.0143893 0.00971365 0.0057507 0.00260512 0.000383212 -0.000701295 -0.00148406 -0.00263038 -0.00481611 -0.00802295 -0.0120683 -0.0167247 -0.0219818 -0.0272854 -0.0327519 -0.0379456 -0.0425312 -0.0465044 -0.0034134 -0.00328285 -0.00311234 -0.00280362 -0.00244806 -0.0020068 -0.0014697 -0.00103945 -0.000494202 0.000139035 0.00050968 0.00103622 -0.000701295 0.000383212 0.00260512 0.0057507 0.00971365 0.0143893 0.0194547 0.0249124 0.0302214 0.035303 0.0400122 0.0439505 -0.049495 -0.0514586 -0.0521464 -0.0515034 -0.049583 -0.0462767 -0.0416098 -0.03594 -0.0289333 -0.0212332 -0.0148209 0.00306954 0.00143832 0.00169605 0.00202139 0.00203762 0.00223349 0.00214937 0.0018696 0.00182917 0.00137227 0.00122125 0.00251932 -0.0257664 0.047009 0.0489788 0.0497897 0.0493192 0.0475067 0.0443332 0.040097 0.0344737 0.0279177 0.0204179 0.0119614 0.0227381 0.00407296 -0.0154958 -0.0201819 -0.0285699 -0.0351129 -0.0409466 -0.0454885 -0.048895 -0.051044 -0.0518355 -0.0514105 -0.0498505 -0.031167 0.00672412 0.00188661 0.00341874 0.00395775 0.00470798 0.00487856 0.00495626 0.0050107 0.0045039 0.00407223 0.00323866 0.0276958 0.0112595 0.0229598 0.0311152 0.0383333 0.0442671 0.0491981 0.0524297 0.0542273 0.0545693 0.0534304 0.0508922 -0.047183 -0.043695 -0.0393943 -0.0347394 -0.0298549 -0.0247712 -0.0200938 -0.0156861 -0.0119655 -0.00902669 -0.00696297 -0.00593795 0.00231791 0.00133221 6.91443e-06 -0.0010891 -0.00233377 -0.00363758 -0.00471948 -0.00575053 -0.00662786 -0.00728841 -0.00778844 -0.00799845 0.0471794 0.0424434 0.036988 0.0308864 0.0245363 0.0183619 0.0123037 0.00689317 0.00220819 -0.00147613 -0.00396907 -0.00529462 -0.00593795 -0.00696297 -0.00902669 -0.0119655 -0.0156861 -0.0200938 -0.0247712 -0.0298549 -0.0347394 -0.0393943 -0.043695 -0.047183 -0.00799845 -0.00778844 -0.00728841 -0.00662786 -0.00575053 -0.00471948 -0.00363758 -0.00233376 -0.0010891 6.91501e-06 0.00133221 0.00231791 -0.00529462 -0.00396907 -0.00147613 0.00220819 0.00689317 0.0123037 0.0183619 0.0245363 0.0308864 0.036988 0.0424434 0.0471794 -0.0498505 -0.0514105 -0.0518355 -0.051044 -0.048895 -0.0454885 -0.0409466 -0.0351129 -0.0285699 -0.0201819 -0.0154958 0.00407296 0.00323866 0.00407224 0.00450391 0.0050107 0.00495626 0.00487856 0.00470798 0.00395775 0.00341874 0.00188661 0.00672412 -0.031167 0.0508922 0.0534304 0.0545693 0.0542273 0.0524297 0.0491981 0.0442671 0.0383333 0.0311152 0.0229598 0.0112595 0.0276958 
</DataArray>
<DataArray Name="Strain_13" format="ascii" type="Float64">
0 0 0 0 0 0 0 0 0 0 0 0 0 0 0 0 0 0 0 0 0 0 0 0 0 0 0 0 0 0 0 0 0 0 0 0 0 0 0 0 0 0 0 0 0 0 0 0 0 0 0 0 0 0 0 0 0 0 0 0 0 0 0 0 0 0 0 0 0 0 0 0 0 0 0 0 0 0 0 0 0 0 0 0 0 0 0 0 0 0 0 0 0 0 0 0 0 0 0 0 0 0 0 0 0 0 0 0 0 0 0 0 0 0 0 0 0 0 0 0 0 0 0 0 0 0 0 0 0 0 0 0 0 0 0 0 0 0 0 0 0 0 0 0 0 0 0 0 0 0 0 0 0 0 0 0 0 0 0 0 0 0 0 0 0 0 0 0 0 0 0 0 0 0 0 0 0 0 0 0 0 0 0 0 0 0 0 0 0 0 0 0 0 0 0 0 0 0 0 0 0 0 0 0 0 0 0 0 0 0 0 0 0 0 0 0 0 0 0 0 0 0 0 0 0 0 0 0 0 0 0 0 0 0 0 0 0 0 0 0 0 0 0 0 0 0 0 0 0 0 0 0 0 0 0 0 0 0 0 0 0 0 0 0 0 0 0 0 0 0 0 0 0 0 0 0 0 0 0 0 0 0 0 0 0 0 0 0 
</DataArray>
<DataArray Name="Strain_23" format="ascii" type="Float64">
0 0 0 0 0 0 0 0 0 0 0 0 0 0 0 0 0 0 0 0 0 0 0 0 0 0 0 0 0 0 0 0 0 0 0 0 0 0 0 0 0 0 0 0 0 0 0 0 0 0 0 0 0 0 0 0 0 0 0 0 0 0 0 0 0 0 0 0 0 0 0 0 0 0 0 0 0 0 0 0 0 0 0 0 0 0 0 0 0 0 0 0 0 0 0 0 0 0 0 0 0 0 0 0 0 0 0 0 0 0 0 0 0 0 0 0 0 0 0 0 0 0 0 0 0 0 0 0 0 0 0 0 0 0 0 0 0 0 0 0 0 0 0 0 0 0 0 0 0 0 0 0 0 0 0 0 0 0 0 0 0 0 0 0 0 0 0 0 0 0 0 0 0 0 0 0 0 0 0 0 0 0 0 0 0 0 0 0 0 0 0 0 0 0 0 0 0 0 0 0 0 0 0 0 0 0 0 0 0 0 0 0 0 0 0 0 0 0 0 0 0 0 0 0 0 0 0 0 0 0 0 0 0 0 0 0 0 0 0 0 0 0 0 0 0 0 0 0 0 0 0 0 0 0 0 0 0 0 0 0 0 0 0 0 0 0 0 0 0 0 0 0 0 0 0 0 0 0 0 0 0 0 0 0 0 0 0 0 
</DataArray>
<DataArray Name="Strain_33" format="ascii" type="Float64">
0.0915682 0.0911763 0.090394 0.0892242 0.0876725 0.0857455 0.0834513 0.0807995 0.0778018 0.074471 0.0708215 0.0668688 0.0948982 0.094492 0.093681 0.0924687 0.0908608 0.0888635 0.0864858 0.0837377 0.080631 0.077179 0.0733968 0.0693003 0.0982283 0.0978075 0.096968 0.0957135 0.094049 0.0919815 0.0895202 0.086676 0.0834602 0.079887 0.075972 0.0717317 0.0626292 0.0581217 0.0533652 0.0483802 0.0431882 0.0378112 0.0322725 0.0265952 0.020804 0.0149237 0.00897975 0.0029975 0.0649067 0.0602352 0.0553058 0.0501395 0.0447587 0.0391862 0.0334457 0.027562 0.0215605 0.0154668 0.0093065 0.0031065 0.0671843 0.0623487 0.0572462 0.0518988 0.0463293 0.0405613 0.0346192 0.0285292 0.0223173 0.0160097 0.00963325 0.0032155 -0.0029975 -0.00897975 -0.0149237 -0.020804 -0.0265952 -0.0322725 -0.0378112 -0.0431882 -0.0483802 -0.0533653 -0.0581217 -0.0626292 -0.0031065 -0.0093065 -0.0154668 -0.0215605 -0.027562 -0.0334457 -0.0391862 -0.0447587 -0.0501395 -0.0553058 -0.0602353 -0.0649067 -0.0032155 -0.00963325 -0.0160097 -0.0223173 -0.0285293 -0.0346192 -0.0405612 -0.0463293 -0.0518988 -0.0572462 -0.0623487 -0.0671843 -0.0668688 -0.0708215 -0.074471 -0.0778018 -0.0807995 -0.0834513 -0.0857455 -0.0876725 -0.0892242 -0.090394 -0.0911762 -0.0915682 -0.0693003 -0.0733967 -0.077179 -0.080631 -0.0837377 -0.0864858 -0.0888635 -0.0908607 -0.0924688 -0.093681 -0.094492 -0.0948983 -0.0717317 -0.075972 -0.079887 -0.0834602 -0.086676 -0.0895203 -0.0919815 -0.094049 -0.0957135 -0.096968 -0.0978075 -0.0982283 -0.0915682 -0.0911763 -0.090394 -0.0892242 -0.0876725 -0.0857455 -0.0834513 -0.0807995 -0.0778018 -0.074471 -0.0708215 -0.0668688 -0.0948982 -0.094492 -0.093681 -0.0924687 -0.0908608 -0.0888635 -0.0864858 -0.0837377 -0.080631 -0.077179 -0.0733968 -0.0693003 -0.0982283 -0.0978075 -0.096968 -0.0957135 -0.094049 -0.0919815 -0.0895202 -0.086676 -0.0834602 -0.079887 -0.075972 -0.0717317 -0.0626292 -0.0581217 -0.0533652 -0.0483802 -0.0431882 -0.0378112 -0.0322725 -0.0265952 -0.020804 -0.0149237 -0.00897975 -0.0029975 -0.0649067 -0.0602352 -0.0553058 -0.0501395 -0.0447587 -0.0391862 -0.0334457 -0.027562 -0.0215605 -0.0154668 -0.0093065 -0.0031065 -0.0671843 -0.0623487 -0.0572462 -0.0518988 -0.0463293 -0.0405613 -0.0346192 -0.0285292 -0.0223173 -0.0160097 -0.00963325 -0.0032155 0.0029975 0.00897975 0.0149237 0.020804 0.0265952 0.0322725 0.0378112 0.0431882 0.0483802 0.0533653 0.0581217 0.0626292 0.0031065 0.0093065 0.0154668 0.0215605 0.027562 0.0334457 0.0391862 0.0447587 0.0501395 0.0553058 0.0602353 0.0649067 0.0032155 0.00963325 0.0160097 0.0223173 0.0285293 0.0346192 0.0405612 0.0463293 0.0518988 0.0572462 0.0623487 0.0671843 0.0668688 0.0708215 0.074471 0.0778018 0.0807995 0.0834513 0.0857455 0.0876725 0.0892242 0.090394 0.0911762 0.0915682 0.0693003 0.0733967 0.077179 0.080631 0.0837377 0.0864858 0.0888635 0.0908607 0.0924688 0.093681 0.094492 0.0948983 0.0717317 0.075972 0.079887 0.0834602 0.086676 0.0895203 0.0919815 0.094049 0.0957135 0.096968 0.0978075 0.0982283 
</DataArray>
<DataArray Name="Stress_11" format="ascii" type="Float64">
-1888.9 -1881.15 -1864.9 -1840.63 -1808.44 -1768.49 -1720.93 -1665.99 -1603.92 -1534.98 -1459.49 -1377.77 -1952.26 -1943.7 -1926.98 -1902.07 -1869.01 -1827.94 -1779.05 -1722.54 -1658.65 -1587.67 -1509.88 -1425.63 -2015.3 -2006.56 -1989.47 -1963.86 -1929.88 -1887.65 -1837.37 -1779.25 -1713.5 -1640.4 -1560.28 -1473.45 -1290.16 -1197.08 -1098.91 -996.083 -889.041 -778.226 -664.149 -547.24 -428.043 -307.027 -184.736 -61.6641 -1335.27 -1239.18 -1137.79 -1031.51 -920.831 -806.2 -688.094 -567.056 -443.587 -318.213 -191.47 -63.915 -1380.28 -1281.16 -1176.51 -1066.79 -952.454 -833.984 -711.906 -586.727 -459.013 -329.317 -198.152 -66.1461 61.6641 184.736 307.027 428.043 547.24 664.149 778.226 889.041 996.083 1098.91 1197.08 1290.16 63.915 191.47 318.213 443.587 567.056 688.094 806.2 920.831 1031.51 1137.79 1239.18 1335.27 66.1461 198.152 329.317 459.013 586.727 711.906 833.984 952.454 1066.79 1176.51 1281.16 1380.28 1377.77 1459.49 1534.98 1603.92 1665.99 1720.93 1768.49 1808.44 1840.63 1864.9 1881.15 1888.9 1425.63 1509.88 1587.67 1658.65 1722.54 1779.05 1827.94 1869.01 1902.07 1926.98 1943.7 1952.26 1473.45 1560.28 1640.4 1713.5 1779.25 1837.37 1887.65 1929.88 1963.86 1989.47 2006.56 2015.3 0.187787 0.186955 0.185363 0.182978 0.179812 0.175879 0.171195 0.165779 0.159654 0.152845 0.14538 0.137291 0.195179 0.194366 0.192697 0.190199 0.18689 0.182777 0.177883 0.172226 0.165831 0.158727 0.150943 0.142514 0.202603 0.201737 0.199991 0.197389 0.193937 0.18965 0.184549 0.178657 0.171999 0.164604 0.156507 0.147742 0.12861 0.119376 0.109625 0.099402 0.0887487 0.0777097 0.0663362 0.0546716 0.0427713 0.0306835 0.0184638 0.00616345 0.133475 0.123864 0.113724 0.103097 0.0920306 0.080571 0.0687651 0.0566676 0.0443278 0.0317986 0.0191331 0.00638682 0.138348 0.128365 0.117836 0.106809 0.0953308 0.0834481 0.0712141 0.0586784 0.0458971 0.0329239 0.0198085 0.00661207 -0.00616345 -0.0184638 -0.0306835 -0.0427713 -0.0546716 -0.0663362 -0.0777097 -0.0887487 -0.099402 -0.109625 -0.119376 -0.12861 -0.00638682 -0.0191331 -0.0317986 -0.0443278 -0.0566676 -0.0687651 -0.080571 -0.0920306 -0.103097 -0.113724 -0.123864 -0.133475 -0.00661207 -0.0198085 -0.0329239 -0.0458971 -0.0586784 -0.0712141 -0.0834481 -0.0953308 -0.106809 -0.117836 -0.128365 -0.138348 -0.137291 -0.14538 -0.152845 -0.159654 -0.165779 -0.171195 -0.175879 -0.179812 -0.182978 -0.185363 -0.186955 -0.187787 -0.142514 -0.150943 -0.158727 -0.165831 -0.172226 -0.177883 -0.182777 -0.18689 -0.190199 -0.192697 -0.194366 -0.195179 -0.147742 -0.156507 -0.164604 -0.171999 -0.178657 -0.184549 -0.18965 -0.193937 -0.197389 -0.199991 -0.201737 -0.202603 
</DataArray>
<DataArray Name="Stress_22" format="ascii" type="Float64">
-1883.54 -1875.69 -1859.55 -1835.67 -1803.91 -1764.47 -1717.49 -1663.17 -1601.73 -1533.44 -1458.56 -1377.42 -1952.32 -1943.67 -1927.13 -1902.17 -1869.08 -1827.98 -1779.04 -1722.51 -1658.57 -1587.54 -1509.73 -1425.44 -2020.68 -2011.63 -1994.54 -1968.53 -1934.14 -1891.42 -1840.58 -1781.85 -1715.48 -1641.77 -1561.04 -1473.66 -1290.34 -1197.7 -1099.89 -997.32 -890.444 -779.697 -665.577 -548.554 -429.146 -307.868 -185.257 -61.8422 -1335.05 -1238.95 -1137.54 -1031.27 -920.581 -805.962 -687.887 -566.866 -443.433 -318.102 -191.404 -63.8909 -1379.99 -1280.44 -1175.45 -1065.48 -950.996 -832.475 -710.434 -585.396 -457.892 -328.458 -197.624 -65.9649 61.8422 185.257 307.868 429.146 548.554 665.577 779.697 890.444 997.32 1099.89 1197.7 1290.34 63.8909 191.404 318.102 443.433 566.866 687.887 805.962 920.581 1031.27 1137.54 1238.95 1335.05 65.9649 197.624 328.458 457.892 585.396 710.434 832.475 950.996 1065.48 1175.45 1280.44 1379.99 1377.42 1458.56 1533.44 1601.73 1663.17 1717.49 1764.47 1803.91 1835.67 1859.55 1875.69 1883.54 1425.44 1509.73 1587.54 1658.57 1722.51 1779.04 1827.98 1869.08 1902.17 1927.13 1943.67 1952.32 1473.66 1561.04 1641.77 1715.48 1781.85 1840.58 1891.42 1934.14 1968.53 1994.54 2011.63 2020.68 0.188199 0.18754 0.185899 0.183483 0.180275 0.176294 0.171555 0.166079 0.159892 0.153022 0.145496 0.137351 0.195201 0.194344 0.192666 0.190178 0.186874 0.18277 0.177883 0.172237 0.165851 0.158755 0.15098 0.142558 0.202177 0.201155 0.199453 0.196888 0.193483 0.189253 0.184215 0.178391 0.171803 0.164478 0.156448 0.147746 0.12862 0.119341 0.109555 0.0993047 0.0886341 0.0775873 0.0662137 0.0545594 0.0426751 0.0306106 0.0184179 0.00614792 0.133525 0.123919 0.113781 0.103156 0.0920881 0.0806256 0.068816 0.0567108 0.0443633 0.0318251 0.0191496 0.00639221 0.138407 0.128471 0.11798 0.106979 0.095516 0.0836372 0.071395 0.0588429 0.046035 0.033027 0.0198733 0.00663386 -0.00614792 -0.0184179 -0.0306106 -0.0426751 -0.0545594 -0.0662137 -0.0775873 -0.0886341 -0.0993047 -0.109555 -0.119341 -0.12862 -0.00639221 -0.0191496 -0.0318251 -0.0443633 -0.0567108 -0.068816 -0.0806256 -0.0920881 -0.103156 -0.113781 -0.123919 -0.133525 -0.00663386 -0.0198733 -0.033027 -0.046035 -0.0588429 -0.071395 -0.0836372 -0.095516 -0.106979 -0.11798 -0.128471 -0.138407 -0.137351 -0.145496 -0.153022 -0.159892 -0.166079 -0.171555 -0.176294 -0.180275 -0.183483 -0.185899 -0.18754 -0.188199 -0.142558 -0.15098 -0.158755 -0.165851 -0.172237 -0.177883 -0.18277 -0.186874 -0.190178 -0.192666 -0.194344 -0.195201 -0.147746 -0.156448 -0.164478 -0.171803 -0.178391 -0.184215 -0.189253 -0.193483 -0.196888 -0.199453 -0.201155 -0.202177 
</DataArray>
<DataArray Name="Stress_12" format="ascii" type="Float64">