<?xml version="1.0"?>
<VTKFile byte_order="LittleEndian" type="UnstructuredGrid" version="0.1">
<UnstructuredGrid>
<Piece NumberOfCells="288" NumberOfPoints="384">
<PointData>
<DataArray Name="Warping_X" format="ascii" type="Float64">
0.196114 0.23985 0.215273 0.231296 0.244172 0.253931 0.260671 0.264525 0.265682 0.264358 0.260817 0.255344 0.248245 0.247336 0.208863 0.228685 0.245138 0.258197 0.267918 0.274404 0.277808 0.278326 0.276206 0.271723 0.265189 0.256944 0.254816 0.222165 0.242633 0.25949 0.27271 0.282363 0.288558 0.29146 0.291293 0.288313 0.282825 0.27517 0.265705 0.262289 0.236007 0.257104 0.274338 0.287707 0.29726 0.303123 0.305482 0.304571 0.300679 0.294125 0.285277 0.274529 0.152401 0.230494 0.220524 0.210272 0.200076 0.190245 0.181076 0.172834 0.165754 0.160033 0.155832 0.153265 0.149743 0.236733 0.225506 0.214021 0.202636 0.19169 0.181502 0.172359 0.164514 0.158183 0.153536 0.150698 0.146546 0.242896 0.230345 0.217559 0.204923 0.192806 0.181546 0.171455 0.162809 0.155836 0.15072 0.147596 0.142813 0.248983 0.23504 0.220888 0.20694 0.193591 0.181207 0.170126 0.160637 0.152991 0.147386 0.143963 0.23985 0.153265 0.155832 0.160033 0.165754 0.172834 0.181076 0.190245 0.200076 0.210272 0.220524 0.230494 0.247336 0.150698 0.153536 0.158183 0.164514 0.172359 0.181502 0.19169 0.202636 0.214021 0.225506 0.236733 0.254816 0.147596 0.15072 0.155836 0.162809 0.171455 0.181546 0.192806 0.204923 0.217559 0.230345 0.242896 0.262289 0.143963 0.147386 0.152991 0.160637 0.170126 0.181207 0.193591 0.20694 0.220888 0.23504 0.248983 0.196114 0.248245 0.255344 0.260817 0.264358 0.265682 0.264525 0.260671 0.253931 0.244172 0.231296 0.215273 0.208863 0.256944 0.265189 0.271723 0.276206 0.278326 0.277808 0.274404 0.267918 0.258197 0.245138 0.228685 0.222165 0.265705 0.27517 0.282825 0.288313 0.291293 0.29146 0.288558 0.282363 0.27271 0.25949 0.242633 0.236007 0.274529 0.285277 0.294125 0.300679 0.304571 0.305482 0.303123 0.29726 0.287707 0.274338 0.257104 -0.237774 0.172848 0.146584 0.117346 0.0852572 0.0505221 0.0133909 -0.0257994 -0.0666813 -0.108808 -0.151712 -0.194874 -0.244398 0.185428 0.15863 0.128572 0.0953691 0.0592309 0.0204452 -0.0206439 -0.0636224 -0.108012 -0.153316 -0.198965 -0.251033 0.198476 0.171154 0.140242 0.105895 0.0683237 0.0278252 -0.0152038 -0.0603258 -0.107046 -0.1548 -0.203003 -0.257655 0.212066 0.184191 0.152418 0.116881 0.0778283 0.0355899 -0.0094393 -0.056768 -0.10587 -0.156146 -0.206964 -0.547329 -0.279854 -0.32056 -0.359353 -0.3957 -0.429105 -0.45908 -0.485222 -0.507139 -0.524533 -0.537134 -0.544769 -0.573507 -0.289017 -0.332222 -0.373438 -0.412077 -0.447606 -0.479516 -0.507343 -0.530691 -0.549216 -0.562647 -0.57078 -0.600173 -0.298252 -0.344023 -0.387708 -0.428703 -0.466409 -0.500285 -0.529854 -0.554659 -0.574343 -0.588623 -0.597275 -0.627319 -0.30754 -0.355936 -0.402164 -0.445564 -0.4855 -0.521407 -0.552741 -0.579048 -0.599928 -0.615062 -0.624245 -0.237774 -0.544769 -0.537134 -0.524533 -0.507139 -0.485222 -0.45908 -0.429105 -0.3957 -0.359353 -0.32056 -0.279854 -0.244398 -0.57078 -0.562647 -0.549216 -0.530691 -0.507343 -0.479516 -0.447606 -0.412077 -0.373438 -0.332222 -0.289017 -0.251033 -0.597275 -0.588623 -0.574343 -0.554659 -0.529854 -0.500285 -0.466409 -0.428703 -0.387708 -0.344023 -0.298252 -0.257655 -0.624245 -0.615062 -0.599928 -0.579048 -0.552741 -0.521407 -0.4855 -0.445564 -0.402164 -0.355936 -0.30754 -0.194874 -0.151712 -0.108808 -0.0666813 -0.0257994 0.0133909 0.0505221 0.0852572 0.117346 0.146584 0.172848 -0.198965 -0.153316 -0.108012 -0.0636224 -0.0206439 0.0204452 0.0592309 0.0953691 0.128572 0.15863 0.185428 -0.203003 -0.1548 -0.107046 -0.0603258 -0.0152038 0.0278252 0.0683237 0.105895 0.140242 0.171154 0.198476 -0.206964 -0.156146 -0.10587 -0.056768 -0.0094393 0.0355899 0.0778283 0.116881 0.152418 0.184191 0.212066 
</DataArray>
<DataArray Name="Warping_Y" format="ascii" type="Float64">
-0.280148 -0.0254745 -0.257524 -0.233889 -0.209711 -0.185381 -0.161287 -0.137783 -0.115211 -0.0938651 -0.0740171 -0.0558873 -0.0396638 -0.0201897 -0.291912 -0.267453 -0.242006 -0.216021 -0.189926 -0.164129 -0.139022 -0.114959 -0.0922633 -0.0712253 -0.0520772 -0.0350194 -0.0143719 -0.303678 -0.277316 -0.24998 -0.222123 -0.194201 -0.16665 -0.139878 -0.114282 -0.0902032 -0.0679398 -0.0477531 -0.0298465 -0.00802475 -0.315447 -0.287103 -0.25782 -0.228029 -0.198211 -0.168842 -0.140366 -0.113187 -0.0876812 -0.0641663 -0.042917 -0.0241487 8.34833e-11 -0.013411 -0.00351138 0.00423503 0.00988717 0.0135482 0.0153606 0.015513 0.0142228 0.0117429 0.00834688 0.0043302 7.98499e-11 -0.00768249 0.00246322 0.0102647 0.0157827 0.0191323 0.0204741 0.0200083 0.0179763 0.0146507 0.0103304 0.00533536 7.62152e-11 -0.00142544 0.00895502 0.0167847 0.0221396 0.0251414 0.0259635 0.0248293 0.021997 0.0177632 0.0124529 0.00641039 7.25819e-11 0.00535636 0.0159557 0.0237959 0.0289553 0.0315682 0.031828 0.029972 0.0262825 0.0210782 0.0147108 0.00755429 0.0254745 -0.0043302 -0.00834688 -0.0117429 -0.0142228 -0.015513 -0.0153606 -0.0135482 -0.00988717 -0.00423503 0.00351138 0.013411 0.0201897 -0.00533536 -0.0103304 -0.0146507 -0.0179763 -0.0200083 -0.0204741 -0.0191323 -0.0157827 -0.0102647 -0.00246322 0.00768249 0.0143719 -0.00641039 -0.0124529 -0.0177632 -0.021997 -0.0248293 -0.0259635 -0.0251414 -0.0221396 -0.0167847 -0.00895502 0.00142544 0.00802475 -0.00755429 -0.0147108 -0.0210782 -0.0262825 -0.029972 -0.031828 -0.0315682 -0.0289553 -0.0237959 -0.0159557 -0.00535636 0.280148 0.0396638 0.0558873 0.0740171 0.0938651 0.115211 0.137783 0.161287 0.185381 0.209711 0.233889 0.257524 0.291912 0.0350194 0.0520772 0.0712253 0.0922633 0.114959 0.139022 0.164129 0.189926 0.216021 0.242006 0.267453 0.303678 0.0298465 0.0477531 0.0679398 0.0902032 0.114282 0.139878 0.16665 0.194201 0.222123 0.24998 0.277316 0.315447 0.0241487 0.042917 0.0641663 0.0876812 0.113187 0.140366 0.168842 0.198211 0.228029 0.25782 0.287103 0.396102 0.302229 0.323468 0.343511 0.361822 0.377923 0.391345 0.40168 0.408548 0.411644 0.410719 0.405574 0.420477 0.315642 0.338708 0.360497 0.380471 0.398099 0.412883 0.424364 0.432151 0.43589 0.435313 0.430219 0.445366 0.329247 0.354164 0.377758 0.399445 0.418647 0.434828 0.447501 0.456219 0.460623 0.460419 0.455378 0.470789 0.343004 0.369817 0.395284 0.418738 0.439563 0.457186 0.47108 0.480777 0.485871 0.486046 0.481072 -2.19426e-10 0.382255 0.364077 0.341659 0.315201 0.284943 0.251201 0.21435 0.17482 0.133089 0.0896752 0.0451241 -1.90847e-10 0.406038 0.386941 0.363297 0.335304 0.303218 0.267392 0.228221 0.186168 0.141752 0.0955237 0.0480703 -1.62502e-10 0.430326 0.410296 0.385395 0.355833 0.321898 0.283938 0.242395 0.197771 0.150611 0.101508 0.051081 -1.33915e-10 0.45514 0.434158 0.407982 0.376822 0.340982 0.300848 0.256892 0.209634 0.159662 0.107617 0.054159 -0.396102 -0.0451241 -0.0896752 -0.133089 -0.17482 -0.21435 -0.251201 -0.284943 -0.315201 -0.341659 -0.364077 -0.382255 -0.420477 -0.0480703 -0.0955237 -0.141752 -0.186168 -0.228221 -0.267392 -0.303218 -0.335304 -0.363297 -0.386941 -0.406038 -0.445366 -0.051081 -0.101508 -0.150611 -0.197771 -0.242395 -0.283938 -0.321898 -0.355833 -0.385395 -0.410296 -0.430326 -0.470789 -0.054159 -0.107617 -0.159662 -0.209634 -0.256892 -0.300848 -0.340982 -0.376822 -0.407982 -0.434158 -0.45514 -0.405574 -0.410719 -0.411644 -0.408548 -0.40168 -0.391345 -0.377923 -0.361822 -0.343511 -0.323468 -0.302229 -0.430219 -0.435313 -0.43589 -0.432151 -0.424364 -0.412883 -0.398099 -0.380471 -0.360497 -0.338708 -0.315642 -0.455378 -0.460419 -0.460623 -0.456219 -0.447501 -0.434828 -0.418647 -0.399445 -0.377758 -0.354164 -0.329247 -0.481072 -0.486046 -0.485871 -0.480777 -0.47108 -0.457186 -0.439563 -0.418738 -0.395284 -0.369817 -0.343004 
</DataArray>
<DataArray Name="Warping_Z" format="ascii" type="Float64">
0 0 0 0 0 0 0 0 0 0 0 0 0 0 0 0 0 0 0 0 0 0 0 0 0 0 0 0 0 0 0 0 0 0 0 0 0 0 0 0 0 0 0 0 0 0 0 0 0 0 0 0 0 0 0 0 0 0 0 0 0 0 0 0 0 0 0 0 0 0 0 0 0 0 0 0 0 0 0 0 0 0 0 0 0 0 0 0 0 0 0 0 0 0 0 0 0 0 0 0 0 0 0 0 0 0 0 0 0 0 0 0 0 0 0 0 0 0 0 0 0 0 0 0 0 0 0 0 0 0 0 0 0 0 0 0 0 0 0 0 0 0 0 0 0 0 0 0 0 0 0 0 0 0 0 0 0 0 0 0 0 0 0 0 0 0 0 0 0 0 0 0 0 0 0 0 0 0 0 0 0 0 0 0 0 0 0 0 0 0 0 0 0 0 0 0 0 0 0 0 0 0 0 0 0 0 0 0 0 0 0 0 0 0 0 0 0 0 0 0 0 0 0 0 0 0 0 0 0 0 0 0 0 0 0 0 0 0 0 0 0 0 0 0 0 0 0 0 0 0 0 0 0 0 0 0 0 0 0 0 0 0 0 0 0 0 0 0 0 0 0 0 0 0 0 0 0 0 0 0 0 0 0 0 0 0 0 0 0 0 0 0 0 0 0 0 0 0 0 0 0 0 0 0 0 0 0 0 0 0 0 0 0 0 0 0 0 0 0 0 0 0 0 0 0 0 0 0 0 0 0 0 0 0 0 0 0 0 0 0 0 0 0 0 0 0 0 0 0 0 0 0 0 0 0 0 0 0 0 0 0 0 0 0 0 0 0 0 0 0 0 0 0 0 0 0 0 0 0 0 0 0 0 0 
</DataArray>
</PointData>
<CellData>
<DataArray Name="MaterialId" format="ascii" type="Float64">
1 1 1 1 1 1 1 1 1 1 1 1 1 1 1 1 1 1 1 1 1 1 1 1 1 1 1 1 1 1 1 1 1 1 1 1 1 1 1 1 1 1 1 1 1 1 1 1 1 1 1 1 1 1 1 1 1 1 1 1 1 1 1 1 1 1 1 1 1 1 1 1 1 1 1 1 1 1 1 1 1 1 1 1 1 1 1 1 1 1 1 1 1 1 1 1 1 1 1 1 1 1 1 1 1 1 1 1 1 1 1 1 1 1 1 1 1 1 1 1 1 1 1 1 1 1 1 1 1 1 1 1 1 1 1 1 1 1 1 1 1 1 1 1 2 2 2 2 2 2 2 2 2 2 2 2 2 2 2 2 2 2 2 2 2 2 2 2 2 2 2 2 2 2 2 2 2 2 2 2 2 2 2 2 2 2 2 2 2 2 2 2 2 2 2 2 2 2 2 2 2 2 2 2 2 2 2 2 2 2 2 2 2 2 2 2 2 2 2 2 2 2 2 2 2 2 2 2 2 2 2 2 2 2 2 2 2 2 2 2 2 2 2 2 2 2 2 2 2 2 2 2 2 2 2 2 2 2 2 2 2 2 2 2 2 2 2 2 2 2 2 2 2 2 2 2 2 2 2 2 2 2 2 2 2 2 2 2 
</DataArray>
<DataArray Name="FiberAngle" format="ascii" type="Float64">
0 0 0 0 0 0 0 0 0 0 0 0 0 0 0 0 0 0 0 0 0 0 0 0 0 0 0 0 0 0 0 0 0 0 0 0 0 0 0 0 0 0 0 0 0 0 0 0 0 0 0 0 0 0 0 0 0 0 0 0 0 0 0 0 0 0 0 0 0 0 0 0 0 0 0 0 0 0 0 0 0 0 0 0 0 0 0 0 0 0 0 0 0 0 0 0 0 0 0 0 0 0 0 0 0 0 0 0 0 0 0 0 0 0 0 0 0 0 0 0 0 0 0 0 0 0 0 0 0 0 0 0 0 0 0 0 0 0 0 0 0 0 0 0 0 0 0 0 0 0 0 0 0 0 0 0 0 0 0 0 0 0 0 0 0 0 0 0 0 0 0 0 0 0 0 0 0 0 0 0 0 0 0 0 0 0 0 0 0 0 0 0 0 0 0 0 0 0 0 0 0 0 0 0 0 0 0 0 0 0 0 0 0 0 0 0 0 0 0 0 0 0 0 0 0 0 0 0 0 0 0 0 0 0 0 0 0 0 0 0 0 0 0 0 0 0 0 0 0 0 0 0 0 0 0 0 0 0 0 0 0 0 0 0 0 0 0 0 0 0 0 0 0 0 0 0 0 0 0 0 0 0 0 0 0 0 0 0 
</DataArray>
<DataArray Name="Strain_11" format="ascii" type="Float64">
-3.37628 -3.09466 -2.81405 -2.53612 -2.26256 -1.99457 -1.73326 -1.47976 -1.2352 -1.00058 -0.776907 -0.565158 -3.37275 -3.08206 -2.79117 -2.50432 -2.22178 -1.94471 -1.67441 -1.412 -1.15859 -0.915285 -0.683104 -0.46306 -3.36712 -3.06745 -2.7681 -2.47195 -2.1802 -1.89404 -1.61466 -1.34327 -1.08106 -0.829085 -0.588452 -0.360223 -0.366183 -0.180857 -0.00988512 0.145985 0.286154 0.410062 0.517169 0.607081 0.679448 0.733974 0.770422 0.788686 -0.256099 -0.0631081 0.115074 0.277725 0.424133 0.553593 0.66566 0.759788 0.835563 0.892707 0.930915 0.950073 -0.14539 0.0550841 0.240368 0.409591 0.56201 0.696926 0.813749 0.911935 0.991016 1.05065 1.09057 1.11057 0.788686 0.770422 0.733974 0.679448 0.607081 0.517169 0.410062 0.286154 0.145985 -0.00988512 -0.180857 -0.366183 0.950073 0.930915 0.892707 0.835563 0.759788 0.66566 0.553593 0.424133 0.277725 0.115074 -0.0631081 -0.256099 1.11057 1.09057 1.05065 0.991016 0.911935 0.813749 0.696926 0.56201 0.409591 0.240368 0.0550841 -0.14539 -0.565158 -0.776907 -1.00058 -1.2352 -1.47976 -1.73326 -1.99457 -2.26256 -2.53612 -2.81405 -3.09466 -3.37628 -0.46306 -0.683104 -0.915285 -1.15859 -1.412 -1.67441 -1.94471 -2.22178 -2.50432 -2.79117 -3.08206 -3.37275 -0.360223 -0.588452 -0.829085 -1.08106 -1.34327 -1.61466 -1.89404 -2.1802 -2.47195 -2.7681 -3.06745 -3.36712 -3.76631 -4.0398 -4.30767 -4.57266 -4.83345 -5.08935 -5.33949 -5.58301 -5.81901 -6.04662 -6.26489 -6.47284 -3.65886 -3.95576 -4.24645 -4.53479 -4.81864 -5.09686 -5.36814 -5.63133 -5.8853 -6.12894 -6.36122 -6.58114 -3.56444 -3.87594 -4.18976 -4.49944 -4.80466 -5.10355 -5.39462 -5.67636 -5.94739 -6.20649 -6.45249 -6.68434 -6.66957 -6.85407 -7.02546 -7.18276 -7.32514 -7.45176 -7.56182 -7.65464 -7.72967 -7.78639 -7.82439 -7.84346 -6.78778 -6.98027 -7.1578 -7.3197 -7.4653 -7.59391 -7.70516 -7.79855 -7.87367 -7.9303 -7.96814 -7.98712 -6.90113 -7.10203 -7.28642 -7.45366 -7.6033 -7.73491 -7.84824 -7.94298 -8.01896 -8.07606 -8.11418 -8.13326 -7.84346 -7.82439 -7.78639 -7.72967 -7.65464 -7.56182 -7.45176 -7.32514 -7.18276 -7.02546 -6.85407 -6.66957 -7.98712 -7.96814 -7.9303 -7.87367 -7.79855 -7.70516 -7.59391 -7.4653 -7.3197 -7.1578 -6.98027 -6.78778 -8.13326 -8.11418 -8.07606 -8.01896 -7.94298 -7.84824 -7.73491 -7.6033 -7.45366 -7.28642 -7.10203 -6.90113 -6.47284 -6.26489 -6.04662 -5.81901 -5.58301 -5.33949 -5.08935 -4.83345 -4.57266 -4.30767 -4.0398 -3.76631 -6.58114 -6.36122 -6.12894 -5.8853 -5.63133 -5.36814 -5.09686 -4.81864 -4.53479 -4.24645 -3.95576 -3.65886 -6.68434 -6.45249 -6.20649 -5.94739 -5.67636 -5.39462 -5.10355 -4.80466 -4.49944 -4.18976 -3.87594 -3.56444 
</DataArray>
<DataArray Name="Strain_22" format="ascii" type="Float64">
-3.38254 -3.09633 -2.81717 -2.54029 -2.26757 -1.99999 -1.73885 -1.48509 -1.2399 -1.00429 -0.779253 -0.565813 -3.37732 -3.08022 -2.79067 -2.50383 -2.22104 -1.94393 -1.6735 -1.41105 -1.15766 -0.914336 -0.682219 -0.462247 -3.37277 -3.06434 -2.76493 -2.46771 -2.17515 -1.88844 -1.60893 -1.33773 -1.07608 -0.825059 -0.585714 -0.359112 -0.36486 -0.177329 -0.00402127 0.154298 0.296902 0.423152 0.532462 0.624324 0.69834 0.754159 0.791499 0.810213 -0.255383 -0.0625294 0.115547 0.278031 0.424262 0.553625 0.665518 0.759524 0.835194 0.892239 0.930417 0.949524 -0.14619 0.0521786 0.235162 0.402044 0.552107 0.684727 0.799422 0.895712 0.973195 1.03156 1.07061 1.09019 0.810213 0.791499 0.754159 0.69834 0.624324 0.532462 0.423152 0.296902 0.154298 -0.00402127 -0.177329 -0.36486 0.949524 0.930417 0.892239 0.835194 0.759524 0.665518 0.553625 0.424262 0.278031 0.115547 -0.0625294 -0.255383 1.09019 1.07061 1.03156 0.973195 0.895712 0.799422 0.684727 0.552107 0.402044 0.235162 0.0521786 -0.14619 -0.565813 -0.779253 -1.00429 -1.2399 -1.48509 -1.73885 -1.99999 -2.26757 -2.54029 -2.81717 -3.09633 -3.38254 -0.462247 -0.682219 -0.914336 -1.15766 -1.41105 -1.6735 -1.94393 -2.22104 -2.50383 -2.79067 -3.08022 -3.37732 -0.359112 -0.585714 -0.825059 -1.07608 -1.33773 -1.60893 -1.88844 -2.17515 -2.46771 -2.76493 -3.06434 -3.37277 -3.65193 -3.91779 -4.20418 -4.48432 -4.76088 -5.0317 -5.29541 -5.55077 -5.79645 -6.03132 -6.25436 -6.46458 -3.67502 -3.961 -4.24904 -4.53464 -4.81567 -5.09128 -5.36038 -5.62171 -5.87423 -6.11691 -6.34863 -6.56845 -3.69414 -3.99938 -4.2924 -4.58439 -4.87143 -5.15323 -5.42872 -5.69698 -5.95698 -6.20775 -6.44829 -6.67749 -6.66119 -6.84339 -7.01061 -7.16232 -7.29805 -7.41746 -7.52026 -7.6062 -7.67515 -7.72696 -7.76153 -7.77883 -6.77538 -6.96849 -7.14699 -7.31001 -7.45687 -7.58691 -7.69948 -7.79411 -7.87033 -7.92783 -7.96632 -7.98559 -6.89431 -7.0977 -7.28662 -7.46007 -7.61706 -7.75663 -7.878 -7.98038 -8.0631 -8.12563 -8.16756 -8.1886 -7.77883 -7.76153 -7.72696 -7.67515 -7.6062 -7.52026 -7.41746 -7.29805 -7.16232 -7.01061 -6.84339 -6.66119 -7.98559 -7.96632 -7.92783 -7.87033 -7.79411 -7.69948 -7.58691 -7.45687 -7.31001 -7.14699 -6.96849 -6.77538 -8.1886 -8.16756 -8.12563 -8.0631 -7.98038 -7.878 -7.75663 -7.61706 -7.46007 -7.28662 -7.0977 -6.89431 -6.46458 -6.25436 -6.03132 -5.79645 -5.55077 -5.29541 -5.0317 -4.76088 -4.48432 -4.20418 -3.91779 -3.65193 -6.56845 -6.34863 -6.11691 -5.87423 -5.62171 -5.36038 -5.09128 -4.81567 -4.53464 -4.24904 -3.961 -3.67502 -6.67749 -6.44829 -6.20775 -5.95698 -5.69698 -5.42872 -5.15323 -4.87143 -4.58439 -4.2924 -3.99938 -3.69414 
</DataArray>
<DataArray Name="Strain_12" format="ascii" type="Float64">
0.00223259 -0.00100002 0.00165023 0.00258814 0.00381339 0.00529516 0.00696431 0.00864524 0.0103789 0.0120262 0.0134807 0.0147412 0.00124646 0.000667414 0.00102105 0.000915533 0.000770638 0.000636713 0.000467044 0.000330519 0.000157627 -4.3146e-05 -0.000160586 -0.00032757 -0.00119597 0.00156191 -0.000999564 -0.00185842 -0.00306035 -0.00455765 -0.00616196 -0.00789233 -0.00957568 -0.0111871 -0.0126807 -0.0139299 0.0156901 0.0163134 0.0165321 0.0163288 0.0157205 0.0146724 0.0131949 0.0113852 0.00919979 0.00678123 0.00414202 0.00139962 -0.000455083 -0.000536797 -0.000640045 -0.000645177 -0.000707478 -0.000680532 -0.000593191 -0.000574992 -0.00045832 -0.000333805 -0.000207973 -7.08409e-05 -0.0149003 -0.0155254 -0.0157832 -0.0156346 -0.0150604 -0.0140546 -0.0127128 -0.0109266 -0.00884648 -0.00653844 -0.00398788 -0.0013482 -0.00139962 -0.00414202 -0.00678123 -0.00919979 -0.0113852 -0.0131949 -0.0146724 -0.0157205 -0.0163288 -0.0165321 -0.0163134 -0.0156901 7.08409e-05 0.000207973 0.000333805 0.00045832 0.000574992 0.000593191 0.000680532 0.000707478 0.000645177 0.000640045 0.000536797 0.000455083 0.0013482 0.00398788 0.00653844 0.00884648 0.0109266 0.0127128 0.0140546 0.0150604 0.0156346 0.0157832 0.0155254 0.0149003 -0.0147412 -0.0134807 -0.0120262 -0.0103789 -0.00864524 -0.00696431 -0.00529516 -0.00381339 -0.00258814 -0.00165023 0.00100002 -0.00223259 0.00032757 0.000160586 4.3146e-05 -0.000157627 -0.000330519 -0.000467044 -0.000636713 -0.000770638 -0.000915533 -0.00102105 -0.000667414 -0.00124646 0.0139299 0.0126807 0.0111871 0.00957568 0.00789233 0.00616196 0.00455765 0.00306035 0.00185842 0.000999564 -0.00156191 0.00119597 0.0134581 -0.0151241 -0.0231158 -0.0312284 -0.0353922 -0.036424 -0.0345602 -0.0302095 -0.0239665 -0.0163373 -0.00786717 0.000805664 0.0122441 0.0216609 0.0188175 0.0194041 0.018463 0.0173168 0.0157476 0.0138529 0.0117771 0.00959583 0.00731401 0.00514408 0.0152031 0.0346787 0.0458461 0.0527534 0.0562985 0.0561594 0.0528757 0.0469405 0.0388682 0.0293214 0.0189583 0.00836427 0.00918974 0.0167523 0.0231023 0.0279079 0.0309014 0.0319759 0.0311412 0.0283854 0.0240224 0.0182095 0.011374 0.0038617 0.00308958 0.00121369 -0.000329897 -0.00165776 -0.00253316 -0.00311985 -0.00340241 -0.00322694 -0.00286388 -0.00224351 -0.00141771 -0.000484561 -0.00183448 -0.01111 -0.0189784 -0.0250749 -0.02917 -0.0311309 -0.0308197 -0.0285374 -0.0243424 -0.0185442 -0.0116385 -0.00395682 -0.0038617 -0.011374 -0.0182095 -0.0240224 -0.0283854 -0.0311412 -0.0319759 -0.0309014 -0.0279079 -0.0231023 -0.0167523 -0.00918975 0.000484561 0.00141771 0.00224351 0.00286388 0.00322694 0.00340241 0.00311985 0.00253316 0.00165776 0.000329898 -0.00121369 -0.00308958 0.00395682 0.0116385 0.0185442 0.0243424 0.0285374 0.0308197 0.0311309 0.02917 0.0250749 0.0189784 0.01111 0.00183448 -0.000805666 0.00786717 0.0163373 0.0239665 0.0302095 0.0345602 0.036424 0.0353922 0.0312284 0.0231158 0.0151241 -0.0134581 -0.00514408 -0.00731401 -0.00959583 -0.0117771 -0.0138529 -0.0157476 -0.0173168 -0.018463 -0.0194041 -0.0188175 -0.0216609 -0.0122441 -0.00836426 -0.0189583 -0.0293214 -0.0388682 -0.0469405 -0.0528757 -0.0561594 -0.0562985 -0.0527534 -0.0458461 -0.0346787 -0.0152031 
</DataArray>
<DataArray Name="Strain_13" format="ascii" type="Float64">
0 0 0 0 0 0 0 0 0 0 0 0 0 0 0 0 0 0 0 0 0 0 0 0 0 0 0 0 0 0 0 0 0 0 0 0 0 0 0 0 0 0 0 0 0 0 0 0 0 0 0 0 0 0 0 0 0 0 0 0 0 0 0 0 0 0 0 0 0 0 0 0 0 0 0 0 0 0 0 0 0 0 0 0 0 0 0 0 0 0 0 0 0 0 0 0 0 0 0 0 0 0 0 0 0 0 0 0 0 0 0 0 0 0 0 0 0 0 0 0 0 0 0 0 0 0 0 0 0 0 0 0 0 0 0 0 0 0 0 0 0 0 0 0 0 0 0 0 0 0 0 0 0 0 0 0 0 0 0 0 0 0 0 0 0 0 0 0 0 0 0 0 0 0 0 0 0 0 0 0 0 0 0 0 0 0 0 0 0 0 0 0 0 0 0 0 0 0 0 0 0 0 0 0 0 0 0 0 0 0 0 0 0 0 0 0 0 0 0 0 0 0 0 0 0 0 0 0 0 0 0 0 0 0 0 0 0 0 0 0 0 0 0 0 0 0 0 0 0 0 0 0 0 0 0 0 0 0 0 0 0 0 0 0 0 0 0 0 0 0 0 0 0 0 0 0 0 0 0 0 0 0 0 0 0 0 0 0 
</DataArray>
<DataArray Name="Strain_23" format="ascii" type="Float64">
0 0 0 0 0 0 0 0 0 0 0 0 0 0 0 0 0 0 0 0 0 0 0 0 0 0 0 0 0 0 0 0 0 0 0 0 0 0 0 0 0 0 0 0 0 0 0 0 0 0 0 0 0 0 0 0 0 0 0 0 0 0 0 0 0 0 0 0 0 0 0 0 0 0 0 0 0 0 0 0 0 0 0 0 0 0 0 0 0 0 0 0 0 0 0 0 0 0 0 0 0 0 0 0 0 0 0 0 0 0 0 0 0 0 0 0 0 0 0 0 0 0 0 0 0 0 0 0 0 0 0 0 0 0 0 0 0 0 0 0 0 0 0 0 0 0 0 0 0 0 0 0 0 0 0 0 0 0 0 0 0 0 0 0 0 0 0 0 0 0 0 0 0 0 0 0 0 0 0 0 0 0 0 0 0 0 0 0 0 0 0 0 0 0 0 0 0 0 0 0 0 0 0 0 0 0 0 0 0 0 0 0 0 0 0 0 0 0 0 0 0 0 0 0 0 0 0 0 0 0 0 0 0 0 0 0 0 0 0 0 0 0 0 0 0 0 0 0 0 0 0 0 0 0 0 0 0 0 0 0 0 0 0 0 0 0 0 0 0 0 0 0 0 0 0 0 0 0 0 0 0 0 0 0 0 0 0 0 
</DataArray>
<DataArray Name="Strain_33" format="ascii" type="Float64">
1 1 1 1 1 1 1 1 1 1 1 1 1 1 1 1 1 1 1 1 1 1 1 1 1 1 1 1 1 1 1 1 1 1 1 1 1 1 1 1 1 1 1 1 1 1 1 1 1 1 1 1 1 1 1 1 1 1 1 1 1 1 1 1 1 1 1 1 1 1 1 1 1 1 1 1 1 1 1 1 1 1 1 1 1 1 1 1 1 1 1 1 1 1 1 1 1 1 1 1 1 1 1 1 1 1 1 1 1 1 1 1 1 1 1 1 1 1 1 1 1 1 1 1 1 1 1 1 1 1 1 1 1 1 1 1 1 1 1 1 1 1 1 1 1 1 1 1 1 1 1 1 1 1 1 1 1 1 1 1 1 1 1 1 1 1 1 1 1 1 1 1 1 1 1 1 1 1 1 1 1 1 1 1 1 1 1 1 1 1 1 1 1 1 1 1 1 1 1 1 1 1 1 1 1 1 1 1 1 1 1 1 1 1 1 1 1 1 1 1 1 1 1 1 1 1 1 1 1 1 1 1 1 1 1 1 1 1 1 1 1 1 1 1 1 1 1 1 1 1 1 1 1 1 1 1 1 1 1 1 1 1 1 1 1 1 1 1 1 1 1 1 1 1 1 1 1 1 1 1 1 1 1 1 1 1 1 1 
</DataArray>
<DataArray Name="Stress_11" format="ascii" type="Float64">
-441.323 -402.083 -363.149 -324.577 -286.606 -249.396 -213.108 -177.893 -143.908 -111.294 -80.1911 -50.7346 -440.787 -400.235 -359.87 -320.031 -280.782 -242.299 -204.754 -168.307 -133.111 -99.3188 -67.0732 -36.5135 -440.035 -398.171 -356.593 -315.431 -274.888 -235.128 -196.321 -158.634 -122.231 -87.261 -53.8757 -22.2223 -23.0443 2.75671 26.5677 48.2843 67.8199 85.0944 100.032 112.574 122.67 130.279 135.366 137.915 -7.77164 19.0288 43.7734 66.3591 86.6887 104.667 120.227 133.297 143.818 151.752 157.058 159.717 7.56251 35.3476 61.0176 84.4558 105.56 124.234 140.4 153.985 164.924 173.171 178.691 181.458 137.915 135.366 130.279 122.67 112.574 100.032 85.0944 67.8199 48.2843 26.5677 2.75671 -23.0443 159.717 157.058 151.752 143.818 133.297 120.227 104.667 86.6887 66.3591 43.7734 19.0288 -7.77164 181.458 178.691 173.171 164.924 153.985 140.4 124.234 105.56 84.4558 61.0176 35.3476 7.56251 -50.7346 -80.1911 -111.294 -143.908 -177.893 -213.108 -249.396 -286.606 -324.577 -363.149 -402.083 -441.323 -36.5135 -67.0732 -99.3188 -133.111 -168.307 -204.754 -242.299 -280.782 -320.031 -359.87 -400.235 -440.787 -22.2223 -53.8757 -87.261 -122.231 -158.634 -196.321 -235.128 -274.888 -315.431 -356.593 -398.171 -440.035 -0.0492143 -0.0529916 -0.0567634 -0.060486 -0.0641519 -0.0677475 -0.0712593 -0.0746745 -0.0779791 -0.0811606 -0.0842053 -0.0870999 -0.0480847 -0.0521779 -0.0562079 -0.060205 -0.0641395 -0.0679964 -0.0717582 -0.0754085 -0.0789318 -0.0823129 -0.0855375 -0.0885917 -0.0470886 -0.0513976 -0.0556985 -0.0599504 -0.0641391 -0.0682429 -0.0722422 -0.0761178 -0.0798515 -0.083427 -0.0868285 -0.0900413 -0.0898319 -0.092388 -0.0947568 -0.0969261 -0.098885 -0.100624 -0.102132 -0.103402 -0.104427 -0.105201 -0.10572 -0.10598 -0.0914625 -0.0941376 -0.0966061 -0.0988578 -0.100884 -0.102674 -0.104223 -0.105523 -0.106569 -0.107358 -0.107886 -0.10815 -0.0930523 -0.0958495 -0.098423 -0.100763 -0.102862 -0.104712 -0.106308 -0.107645 -0.108719 -0.109527 -0.110067 -0.110338 -0.10598 -0.10572 -0.105201 -0.104427 -0.103402 -0.102132 -0.100624 -0.098885 -0.0969261 -0.0947568 -0.092388 -0.0898319 -0.10815 -0.107886 -0.107358 -0.106569 -0.105523 -0.104223 -0.102674 -0.100884 -0.0988578 -0.0966061 -0.0941376 -0.0914625 -0.110338 -0.110067 -0.109527 -0.108719 -0.107645 -0.106308 -0.104712 -0.102862 -0.100763 -0.098423 -0.0958495 -0.0930523 -0.0870999 -0.0842053 -0.0811606 -0.0779791 -0.0746745 -0.0712593 -0.0677475 -0.0641519 -0.060486 -0.0567634 -0.0529916 -0.0492143 -0.0885917 -0.0855375 -0.0823129 -0.0789318 -0.0754085 -0.0717582 -0.0679964 -0.0641395 -0.060205 -0.0562079 -0.0521779 -0.0480847 -0.0900413 -0.0868285 -0.083427 -0.0798515 -0.0761178 -0.0722422 -0.0682429 -0.0641391 -0.0599504 -0.0556985 -0.0513976 -0.0470886 
</DataArray>
<DataArray Name="Stress_22" format="ascii" type="Float64">
-441.845 -402.222 -363.409 -324.924 -287.023 -249.848 -213.574 -178.337 -144.3 -111.604 -80.3866 -50.7892 -441.168 -400.082 -359.829 -319.99 -280.721 -242.234 -204.678 -168.228 -133.034 -99.2397 -66.9994 -36.4458 -440.506 -397.912 -356.329 -315.077 -274.466 -234.661 -195.843 -158.172 -121.816 -86.9256 -53.6475 -22.1297 -22.934 3.05075 27.0564 48.9771 68.7156 86.1852 101.306 114.01 124.245 131.961 137.123 139.709 -7.71202 19.0771 43.8128 66.3847 86.6994 104.669 120.215 133.275 143.787 151.713 157.016 159.671 7.49587 35.1055 60.5838 83.8268 104.734 123.218 139.207 152.633 163.439 171.581 177.028 179.759 139.709 137.123 131.961 124.245 114.01 101.306 86.1852 68.7156 48.9771 27.0564 3.05075 -22.934 159.671 157.016 151.713 143.787 133.275 120.215 104.669 86.6994 66.3847 43.8128 19.0771 -7.71202 179.759 177.028 171.581 163.439 152.633 139.207 123.218 104.734 83.8268 60.5838 35.1055 7.49587 -50.7892 -80.3866 -111.604 -144.3 -178.337 -213.574 -249.848 -287.023 -324.924 -363.409 -402.222 -441.845 -36.4458 -66.9994 -99.2397 -133.034 -168.228 -204.678 -242.234 -280.721 -319.99 -359.829 -400.082 -441.168 -22.1297 -53.6475 -86.9256 -121.816 -158.172 -195.843 -234.661 -274.466 -315.077 -356.329 -397.912 -440.506 -0.0482612 -0.0519748 -0.055901 -0.0597498 -0.0635472 -0.0672671 -0.070892 -0.0744058 -0.0777911 -0.081033 -0.0841176 -0.0870311 -0.0482193 -0.0522215 -0.0562295 -0.0602038 -0.0641147 -0.06795 -0.0716935 -0.0753283 -0.0788395 -0.0822127 -0.0854327 -0.0884859 -0.0481695 -0.0524263 -0.0565538 -0.0606584 -0.0646956 -0.0686569 -0.0725264 -0.0762896 -0.0799314 -0.0834374 -0.0867934 -0.0899841 -0.089762 -0.092299 -0.0946331 -0.0967557 -0.0986593 -0.100338 -0.101786 -0.102998 -0.103973 -0.104706 -0.105196 -0.105441 -0.0913591 -0.0940395 -0.096516 -0.0987771 -0.100813 -0.102615 -0.104175 -0.105486 -0.106542 -0.107338 -0.107871 -0.108137 -0.0929954 -0.0958134 -0.0984247 -0.100817 -0.102976 -0.104893 -0.106556 -0.107957 -0.109087 -0.109941 -0.110512 -0.110799 -0.105441 -0.105196 -0.104706 -0.103973 -0.102998 -0.101786 -0.100338 -0.0986593 -0.0967557 -0.0946331 -0.092299 -0.089762 -0.108137 -0.107871 -0.107338 -0.106542 -0.105486 -0.104175 -0.102615 -0.100813 -0.0987771 -0.096516 -0.0940395 -0.0913591 -0.110799 -0.110512 -0.109941 -0.109087 -0.107957 -0.106556 -0.104893 -0.102976 -0.100817 -0.0984247 -0.0958134 -0.0929954 -0.0870311 -0.0841176 -0.081033 -0.0777911 -0.0744058 -0.070892 -0.0672671 -0.0635472 -0.0597498 -0.055901 -0.0519748 -0.0482612 -0.0884859 -0.0854327 -0.0822127 -0.0788395 -0.0753283 -0.0716935 -0.06795 -0.0641147 -0.0602038 -0.0562295 -0.0522215 -0.0482193 -0.0899841 -0.0867934 -0.0834374 -0.0799314 -0.0762896 -0.0725264 -0.0686569 -0.0646956 -0.0606584 -0.0565538 -0.0524263 -0.0481695 
</DataArray>
<DataArray Name="Stress_12" format="ascii" type="Float64">
0.0930254 -0.0416678 0.0687601 0.10784 0.158893 0.220633 0.290182 0.360221 0.43246 0.501096 0.5617 0.61422 0.0519362 0.0278091 0.0425439 0.0381475 0.0321102 0.0265299 0.0194603 0.0137717 0.00656786 -0.00179776 -0.00669113 -0.0136489 -0.0498325 0.0650802 -0.0416488 -0.0774347 -0.127516 -0.189904 -0.25675 -0.32885 -0.39899 -0.466135 -0.528367 -0.580418 0.653759 0.679729 0.688845 0.680373 0.655025 0.611353 0.549791 0.474386 0.383328 0.282554 0.172586 0.0583182 -0.0189619 -0.0223667 -0.0266688 -0.0268826 -0.0294785 -0.0283557 -0.0247165 -0.0239582 -0.0190968 -0.0139087 -0.00866561 -0.00295173 -0.620849 -0.646897 -0.657637 -0.651446 -0.627523 -0.585615 -0.529704 -0.455279 -0.368606 -0.272437 -0.166163 -0.0561753 -0.0583182 -0.172586 -0.282554 -0.383328 -0.474386 -0.549791 -0.611353 -0.655025 -0.680373 -0.688845 -0.679729 -0.653759 0.00295173 0.00866561 0.0139087 0.0190968 0.0239582 0.0247165 0.0283557 0.0294785 0.0268826 0.0266688 0.0223667 0.0189619 0.0561753 0.166163 0.272437 0.368606 0.455279 0.529704 0.585615 0.627523 0.651446 0.657637 0.646897 0.620849 -0.61422 -0.5617 -0.501096 -0.43246 -0.360221 -0.290182 -0.220633 -0.158893 -0.10784 -0.0687601 0.0416678 -0.0930254 0.0136489 0.00669113 0.00179776 -0.00656786 -0.0137717 -0.0194603 -0.0265299 -0.0321102 -0.0381475 -0.0425439 -0.0278091 -0.0519362 0.580418 0.528367 0.466135 0.39899 0.32885 0.25675 0.189904 0.127516 0.0774347 0.0416488 -0.0650802 0.0498325 5.60758e-05 -6.30177e-05 -9.63164e-05 -0.000130119 -0.000147469 -0.000151768 -0.000144002 -0.000125874 -9.98613e-05 -6.80726e-05 -3.27801e-05 3.35696e-06 5.10173e-05 9.02545e-05 7.84069e-05 8.0851e-05 7.69298e-05 7.21541e-05 6.56156e-05 5.77207e-05 4.90715e-05 3.99829e-05 3.04753e-05 2.14338e-05 6.33469e-05 0.000144496 0.000191027 0.000219808 0.000234579 0.000233999 0.000220317 0.000195587 0.000161952 0.000122174 7.89935e-05 3.48514e-05 3.82909e-05 6.9802e-05 9.62604e-05 0.000116284 0.000128757 0.000133234 0.000129756 0.000118273 0.000100094 7.58734e-05 4.73919e-05 1.60906e-05 1.28733e-05 5.05706e-06 -1.37458e-06 -6.90738e-06 -1.05549e-05 -1.29995e-05 -1.41768e-05 -1.34457e-05 -1.19329e-05 -9.34802e-06 -5.90717e-06 -2.01902e-06 -7.64374e-06 -4.62922e-05 -7.90772e-05 -0.00010448 -0.000121543 -0.000129713 -0.000128416 -0.000118907 -0.000101427 -7.72683e-05 -4.84943e-05 -1.64869e-05 -1.60906e-05 -4.73919e-05 -7.58734e-05 -0.000100094 -0.000118273 -0.000129756 -0.000133234 -0.000128757 -0.000116284 -9.62605e-05 -6.9802e-05 -3.82909e-05 2.01902e-06 5.90717e-06 9.34802e-06 1.19329e-05 1.34457e-05 1.41768e-05 1.29995e-05 1.05549e-05 6.90738e-06 1.37458e-06 -5.05706e-06 -1.28733e-05 1.64869e-05 4.84943e-05 7.72683e-05 0.000101427 0.000118907 0.000128416 0.000129713 0.000121543 0.00010448 7.90772e-05 4.62922e-05 7.64374e-06 -3.35697e-06 3.27801e-05 6.80726e-05 9.98613e-05 0.000125874 0.000144002 0.000151768 0.000147469 0.000130119 9.63164e-05 6.30177e-05 -5.60758e-05 -2.14338e-05 -3.04753e-05 -3.99829e-05 -4.90715e-05 -5.77207e-05 -6.56156e-05 -7.21541e-05 -7.69298e-05 -8.0851e-05 -7.84069e-05 -9.02545e-05 -5.10173e-05 -3.48514e-05 -7.89935e-05 -0.000122174 -0.000161952 -0.000195587 -0.000220317 -0.000233999 -0.000234579 -0.000219808 -0.000191027 -0.000144496 -6.33469e-05 
</DataArray>
<DataArray Name="Stress_13" format="ascii" type="Float64">
0 0 0 0 0 0 0 0 0 0 0 0 0 0 0 0 0 0 0 0 0 0 0 0 0 0 0 0 0 0 0 0 0 0 0 0 0 0 0 0 0 0 0 0 0 0 0 0 0 0 0 0 0 0 0 0 0 0 0 0 0 0 0 0 0 0 0 0 0 0 0 0 0 0 0 0 0 0 0 0 0 0 0 0 0 0 0 0 0 0 0 0 0 0 0 0 0 0 0 0 0 0 0 0 0 0 0 0 0 0 0 0 0 0 0 0 0 0 0 0 0 0 0 0 0 0 0 0 0 0 0 0 0 0 0 0 0 0 0 0 0 0 0 0 0 0 0 0 0 0 0 0 0 0 0 0 0 0 0 0 0 0 0 0 0 0 0 0 0 0 0 0 0 0 0 0 0 0 0 0 0 0 0 0 0 0 0 0 0 0 0 0 0 0 0 0 0 0 0 0 0 0 0 0 0 0 0 0 0 0 0 0 0 0 0 0 0 0 0 0 0 0 0 0 0 0 0 0 0 0 0 0 0 0 0 0 0 0 0 0 0 0 0 0 0 0 0 0 0 0 0 0 0 0 0 0 0 0 0 0 0 0 0 0 0 0 0 0 0 0 0 0 0 0 0 0 0 0 0 0 0 0 0 0 0 0 0 0 
</DataArray>