<?xml version="1.0"?>
<VTKFile byte_order="LittleEndian" type="UnstructuredGrid" version="0.1">
<UnstructuredGrid>
<Piece NumberOfCells="288" NumberOfPoints="384">
<PointData>
<DataArray Name="Warping_X" format="ascii" type="Float64">
-0 -0 0 0 0 0 0 0 0 0 0 0 0 0 -0 0 0 0 0 0 0 0 0 0 0 0 0 0 0 0 0 0 0 0 0 0 0 0 0 0 0 0 0 0 0 0 0 0 0 0 0 0 0 0 0 0 0 0 0 0 0 0 0 0 0 0 0 0 0 0 0 0 0 0 0 0 0 0 0 0 0 0 0 0 0 0 0 0 0 0 0 0 0 0 0 0 0 0 0 0 0 0 0 0 0 0 0 0 0 0 0 0 0 0 0 0 0 0 0 0 0 0 0 0 0 0 0 0 0 0 0 0 0 0 0 0 0 0 0 0 0 0 0 0 0 0 0 0 0 0 0 0 0 0 0 0 0 0 0 0 0 0 0 0 0 0 0 0 0 0 0 0 0 0 0 0 0 0 0 0 0 0 0 0 0 0 0 0 0 0 0 0 0 0 0 0 0 0 0 0 0 0 0 0 0 0 0 0 -0 0 0 0 0 0 0 0 0 0 0 0 0 0 0 0 0 0 0 0 0 0 0 0 0 0 0 0 0 0 0 0 0 0 0 0 0 0 0 0 0 0 0 0 0 0 0 0 0 0 0 0 0 0 0 0 0 0 0 0 0 0 0 0 0 0 0 0 0 0 0 0 0 0 0 0 0 0 0 0 0 0 0 0 0 0 0 0 0 0 0 0 0 0 0 0 0 0 0 0 0 0 0 0 0 0 0 0 -0 0 0 0 0 0 0 0 0 0 0 0 0 0 0 0 0 0 0 0 0 0 0 0 0 0 0 0 0 0 0 0 0 0 0 0 0 0 0 0 0 0 0 0 0 0 0 0 0 0 0 0 0 0 0 0 0 0 0 0 0 0 0 0 0 0 0 0 
</DataArray>
<DataArray Name="Warping_Y" format="ascii" type="Float64">
0 -0 0 0 0 0 0 0 0 0 0 0 0 0 -0 0 0 0 0 0 0 0 0 0 0 0 0 0 0 0 0 0 0 0 0 0 0 0 0 0 0 0 0 0 0 0 0 0 0 0 0 0 -0 0 0 0 0 0 0 0 0 0 0 0 0 0 0 0 0 0 0 0 0 0 0 0 0 0 0 0 0 0 0 0 0 0 0 0 0 0 0 0 0 0 0 0 0 0 0 0 -0 0 0 0 0 0 0 0 0 0 0 0 0 0 0 0 0 0 0 0 0 0 0 0 0 0 0 0 0 0 0 0 0 0 0 0 0 0 0 0 0 0 0 0 0 0 0 0 0 0 0 0 0 0 0 0 0 0 0 0 0 0 0 0 0 0 0 0 0 0 0 0 0 0 0 0 0 0 0 0 0 0 0 0 0 0 0 0 0 0 0 0 0 0 0 0 0 0 0 0 0 0 0 0 0 0 0 0 0 0 0 0 0 0 0 0 0 0 0 0 -0 0 0 0 0 0 0 0 0 0 0 0 0 0 0 0 0 0 0 0 0 0 0 0 0 0 0 0 0 0 0 0 0 0 0 0 -0 0 0 0 0 0 0 0 0 0 0 0 0 0 0 0 0 0 0 0 0 0 0 0 0 0 0 0 0 0 0 0 0 0 0 0 0 0 0 0 0 0 0 0 0 0 0 0 -0 0 0 0 0 0 0 0 0 0 0 0 0 0 0 0 0 0 0 0 0 0 0 0 0 0 0 0 0 0 0 0 0 0 0 0 0 0 0 0 0 0 0 0 0 0 0 0 0 0 0 0 0 0 0 0 0 0 0 0 0 0 0 0 0 0 0 0 0 0 0 0 0 0 0 0 0 0 0 0 
</DataArray>
<DataArray Name="Warping_Z" format="ascii" type="Float64">
0 0 0 0 0 0 0 0 0 0 0 0 0 0 0 0 0 0 0 0 0 0 0 0 0 0 0 0 0 0 0 0 0 0 0 0 0 0 0 0 0 0 0 0 0 0 0 0 0 0 0 0 0 0 0 0 0 0 0 0 0 0 0 0 0 0 0 0 0 0 0 0 0 0 0 0 0 0 0 0 0 0 0 0 0 0 0 0 0 0 0 0 0 0 0 0 0 0 0 0 0 0 0 0 0 0 0 0 0 0 0 0 0 0 0 0 0 0 0 0 0 0 0 0 0 0 0 0 0 0 0 0 0 0 0 0 0 0 0 0 0 0 0 0 0 0 0 0 0 0 0 0 0 0 0 0 0 0 0 0 0 0 0 0 0 0 0 0 0 0 0 0 0 0 0 0 0 0 0 0 0 0 0 0 0 0 0 0 0 0 0 0 0 0 0 0 0 0 0 0 0 0 0 0 0 0 0 0 0 0 0 0 0 0 0 0 0 0 0 0 0 0 0 0 0 0 0 0 0 0 0 0 0 0 0 0 0 0 0 0 0 0 0 0 0 0 0 0 0 0 0 0 0 0 0 0 0 0 0 0 0 0 0 0 0 0 0 0 0 0 0 0 0 0 0 0 0 0 0 0 0 0 0 0 0 0 0 0 0 0 0 0 0 0 0 0 0 0 0 0 0 0 0 0 0 0 0 0 0 0 0 0 0 0 0 0 0 0 0 0 0 0 0 0 0 0 0 0 0 0 0 0 0 0 0 0 0 0 0 0 0 0 0 0 0 0 0 0 0 0 0 0 0 0 0 0 0 0 0 0 0 0 0 0 0 0 0 0 0 0 0 0 0 0 0 0 0 0 0 0 0 0 0 0 
</DataArray>
</PointData>
<CellData>
<DataArray Name="MaterialId" format="ascii" type="Float64">
1 1 1 1 1 1 1 1 1 1 1 1 1 1 1 1 1 1 1 1 1 1 1 1 1 1 1 1 1 1 1 1 1 1 1 1 1 1 1 1 1 1 1 1 1 1 1 1 1 1 1 1 1 1 1 1 1 1 1 1 1 1 1 1 1 1 1 1 1 1 1 1 1 1 1 1 1 1 1 1 1 1 1 1 1 1 1 1 1 1 1 1 1 1 1 1 1 1 1 1 1 1 1 1 1 1 1 1 1 1 1 1 1 1 1 1 1 1 1 1 1 1 1 1 1 1 1 1 1 1 1 1 1 1 1 1 1 1 1 1 1 1 1 1 2 2 2 2 2 2 2 2 2 2 2 2 2 2 2 2 2 2 2 2 2 2 2 2 2 2 2 2 2 2 2 2 2 2 2 2 2 2 2 2 2 2 2 2 2 2 2 2 2 2 2 2 2 2 2 2 2 2 2 2 2 2 2 2 2 2 2 2 2 2 2 2 2 2 2 2 2 2 2 2 2 2 2 2 2 2 2 2 2 2 2 2 2 2 2 2 2 2 2 2 2 2 2 2 2 2 2 2 2 2 2 2 2 2 2 2 2 2 2 2 2 2 2 2 2 2 2 2 2 2 2 2 2 2 2 2 2 2 2 2 2 2 2 2 
</DataArray>
<DataArray Name="FiberAngle" format="ascii" type="Float64">
0 0 0 0 0 0 0 0 0 0 0 0 0 0 0 0 0 0 0 0 0 0 0 0 0 0 0 0 0 0 0 0 0 0 0 0 0 0 0 0 0 0 0 0 0 0 0 0 0 0 0 0 0 0 0 0 0 0 0 0 0 0 0 0 0 0 0 0 0 0 0 0 0 0 0 0 0 0 0 0 0 0 0 0 0 0 0 0 0 0 0 0 0 0 0 0 0 0 0 0 0 0 0 0 0 0 0 0 0 0 0 0 0 0 0 0 0 0 0 0 0 0 0 0 0 0 0 0 0 0 0 0 0 0 0 0 0 0 0 0 0 0 0 0 0 0 0 0 0 0 0 0 0 0 0 0 0 0 0 0 0 0 0 0 0 0 0 0 0 0 0 0 0 0 0 0 0 0 0 0 0 0 0 0 0 0 0 0 0 0 0 0 0 0 0 0 0 0 0 0 0 0 0 0 0 0 0 0 0 0 0 0 0 0 0 0 0 0 0 0 0 0 0 0 0 0 0 0 0 0 0 0 0 0 0 0 0 0 0 0 0 0 0 0 0 0 0 0 0 0 0 0 0 0 0 0 0 0 0 0 0 0 0 0 0 0 0 0 0 0 0 0 0 0 0 0 0 0 0 0 0 0 0 0 0 0 0 0 
</DataArray>
<DataArray Name="Strain_11" format="ascii" type="Float64">
0 0 0 0 0 0 0 0 0 0 0 0 0 0 0 0 0 0 0 0 0 0 0 0 0 0 0 0 0 0 0 0 0 0 0 0 0 0 0 0 0 0 0 0 0 0 0 0 0 0 0 0 0 0 0 0 0 0 0 0 0 0 0 0 0 0 0 0 0 0 0 0 0 0 0 0 0 0 0 0 0 0 0 0 0 0 0 0 0 0 0 0 0 0 0 0 0 0 0 0 0 0 0 0 0 0 0 0 0 0 0 0 0 0 0 0 0 0 0 0 0 0 0 0 0 0 0 0 0 0 0 0 0 0 0 0 0 0 0 0 0 0 0 0 0 0 0 0 0 0 0 0 0 0 0 0 0 0 0 0 0 0 0 0 0 0 0 0 0 0 0 0 0 0 0 0 0 0 0 0 0 0 0 0 0 0 0 0 0 0 0 0 0 0 0 0 0 0 0 0 0 0 0 0 0 0 0 0 0 0 0 0 0 0 0 0 0 0 0 0 0 0 0 0 0 0 0 0 0 0 0 0 0 0 0 0 0 0 0 0 0 0 0 0 0 0 0 0 0 0 0 0 0 0 0 0 0 0 0 0 0 0 0 0 0 0 0 0 0 0 0 0 0 0 0 0 0 0 0 0 0 0 0 0 0 0 0 0 
</DataArray>
<DataArray Name="Strain_22" format="ascii" type="Float64">
0 0 0 0 0 0 0 0 0 0 0 0 0 0 0 0 0 0 0 0 0 0 0 0 0 0 0 0 0 0 0 0 0 0 0 0 0 0 0 0 0 0 0 0 0 0 0 0 0 0 0 0 0 0 0 0 0 0 0 0 0 0 0 0 0 0 0 0 0 0 0 0 0 0 0 0 0 0 0 0 0 0 0 0 0 0 0 0 0 0 0 0 0 0 0 0 0 0 0 0 0 0 0 0 0 0 0 0 0 0 0 0 0 0 0 0 0 0 0 0 0 0 0 0 0 0 0 0 0 0 0 0 0 0 0 0 0 0 0 0 0 0 0 0 0 0 0 0 0 0 0 0 0 0 0 0 0 0 0 0 0 0 0 0 0 0 0 0 0 0 0 0 0 0 0 0 0 0 0 0 0 0 0 0 0 0 0 0 0 0 0 0 0 0 0 0 0 0 0 0 0 0 0 0 0 0 0 0 0 0 0 0 0 0 0 0 0 0 0 0 0 0 0 0 0 0 0 0 0 0 0 0 0 0 0 0 0 0 0 0 0 0 0 0 0 0 0 0 0 0 0 0 0 0 0 0 0 0 0 0 0 0 0 0 0 0 0 0 0 0 0 0 0 0 0 0 0 0 0 0 0 0 0 0 0 0 0 0 
</DataArray>
<DataArray Name="Strain_12" format="ascii" type="Float64">
0 0 0 0 0 0 0 0 0 0 0 0 0 0 0 0 0 0 0 0 0 0 0 0 0 0 0 0 0 0 0 0 0 0 0 0 0 0 0 0 0 0 0 0 0 0 0 0 0 0 0 0 0 0 0 0 0 0 0 0 0 0 0 0 0 0 0 0 0 0 0 0 0 0 0 0 0 0 0 0 0 0 0 0 0 0 0 0 0 0 0 0 0 0 0 0 0 0 0 0 0 0 0 0 0 0 0 0 0 0 0 0 0 0 0 0 0 0 0 0 0 0 0 0 0 0 0 0 0 0 0 0 0 0 0 0 0 0 0 0 0 0 0 0 0 0 0 0 0 0 0 0 0 0 0 0 0 0 0 0 0 0 0 0 0 0 0 0 0 0 0 0 0 0 0 0 0 0 0 0 0 0 0 0 0 0 0 0 0 0 0 0 0 0 0 0 0 0 0 0 0 0 0 0 0 0 0 0 0 0 0 0 0 0 0 0 0 0 0 0 0 0 0 0 0 0 0 0 0 0 0 0 0 0 0 0 0 0 0 0 0 0 0 0 0 0 0 0 0 0 0 0 0 0 0 0 0 0 0 0 0 0 0 0 0 0 0 0 0 0 0 0 0 0 0 0 0 0 0 0 0 0 0 0 0 0 0 0 
</DataArray>
<DataArray Name="Strain_13" format="ascii" type="Float64">
2551.37 2608.64 2591.83 2559.62 2516.13 2461.77 2396.81 2321.5 2236.16 2141.18 2036.9 1923.81 2531.65 2521.49 2501.16 2469.85 2427.87 2375.42 2312.73 2240.08 2157.74 2066.07 1965.46 1856.33 2514.04 2440.52 2416.67 2386.18 2345.6 2294.95 2234.38 2164.19 2084.66 1996.1 1898.88 1793.47 1802.35 1673.09 1536.54 1393.33 1244.09 1089.37 929.948 766.441 599.626 430.161 258.849 86.4107 1739.15 1614.41 1482.67 1344.47 1200.44 1051.19 897.313 739.565 578.599 415.093 249.772 83.3791 1680.27 1559.76 1432.45 1298.95 1159.81 1015.58 866.948 714.519 559.01 401.073 241.318 80.5539 -86.4107 -258.849 -430.161 -599.626 -766.441 -929.948 -1089.37 -1244.09 -1393.33 -1536.54 -1673.09 -1802.35 -83.3791 -249.772 -415.093 -578.599 -739.565 -897.313 -1051.19 -1200.44 -1344.47 -1482.67 -1614.41 -1739.15 -80.5539 -241.318 -401.073 -559.01 -714.519 -866.948 -1015.58 -1159.81 -1298.95 -1432.45 -1559.76 -1680.27 -1923.81 -2036.9 -2141.18 -2236.16 -2321.5 -2396.81 -2461.77 -2516.13 -2559.62 -2591.83 -2608.64 -2551.37 -1856.33 -1965.46 -2066.07 -2157.74 -2240.08 -2312.73 -2375.42 -2427.87 -2469.85 -2501.16 -2521.49 -2531.65 -1793.47 -1898.88 -1996.1 -2084.66 -2164.19 -2234.38 -2294.95 -2345.6 -2386.18 -2416.67 -2440.52 -2514.04 2551.32 2608.52 2591.94 2559.48 2516.08 2461.92 2396.97 2321.46 2235.85 2141.34 2037.15 1923.88 2531.56 2521.5 2501.18 2469.7 2427.79 2375.52 2312.88 2240.04 2157.57 2066.16 1965.68 1856.4 2513.88 2440.65 2416.75 2385.85 2345.48 2295.03 2234.62 2164.18 2084.38 1996.23 1899.19 1793.49 1802.38 1673.11 1536.35 1393.18 1244.28 1089.47 929.967 766.368 599.598 430.068 258.733 86.443 1739.1 1614.39 1482.66 1344.42 1200.45 1051.26 897.4 739.594 578.515 414.957 249.727 83.4005 1680.06 1559.71 1432.65 1298.92 1159.66 1015.64 867.121 714.677 558.855 400.823 241.35 80.6468 -86.443 -258.733 -430.068 -599.598 -766.368 -929.967 -1089.47 -1244.28 -1393.18 -1536.35 -1673.11 -1802.38 -83.4005 -249.727 -414.957 -578.515 -739.594 -897.4 -1051.26 -1200.45 -1344.42 -1482.66 -1614.39 -1739.1 -80.6468 -241.35 -400.823 -558.855 -714.677 -867.121 -1015.64 -1159.66 -1298.92 -1432.65 -1559.71 -1680.06 -1923.88 -2037.15 -2141.34 -2235.85 -2321.46 -2396.97 -2461.92 -2516.08 -2559.48 -2591.94 -2608.52 -2551.32 -1856.4 -1965.68 -2066.16 -2157.57 -2240.04 -2312.88 -2375.52 -2427.79 -2469.7 -2501.18 -2521.5 -2531.56 -1793.49 -1899.19 -1996.23 -2084.38 -2164.18 -2234.62 -2295.03 -2345.48 -2385.85 -2416.75 -2440.65 -2513.88 
</DataArray>
<DataArray Name="Strain_23" format="ascii" type="Float64">
-3094.97 -2974.41 -2806.17 -2637.57 -2471.14 -2307.84 -2148.42 -1993.5 -1843.85 -1700.07 -1562.75 -1432.56 -3055.44 -2978.99 -2821.15 -2658.42 -2497.89 -2340.33 -2186.46 -2037.02 -1892.6 -1753.84 -1621.35 -1495.72 -3102.18 -2992.01 -2835 -2678.04 -2522.87 -2370.64 -2222.01 -2077.59 -1938.08 -1804.03 -1676 -1554.62 -1310.03 -1195.72 -1090.12 -993.729 -906.917 -830.088 -763.605 -707.734 -662.747 -628.824 -606.141 -594.761 -1377.49 -1267.19 -1165.3 -1072.27 -988.499 -914.381 -850.215 -796.302 -752.887 -720.171 -698.282 -687.298 -1440.4 -1333.85 -1235.39 -1145.49 -1064.58 -992.954 -930.956 -878.874 -836.924 -805.319 -784.163 -773.553 -594.761 -606.141 -628.824 -662.747 -707.734 -763.605 -830.088 -906.917 -993.729 -1090.12 -1195.72 -1310.03 -687.298 -698.282 -720.171 -752.887 -796.302 -850.215 -914.381 -988.499 -1072.27 -1165.3 -1267.19 -1377.49 -773.553 -784.163 -805.319 -836.924 -878.874 -930.956 -992.954 -1064.58 -1145.49 -1235.39 -1333.85 -1440.4 -1432.56 -1562.75 -1700.07 -1843.85 -1993.5 -2148.42 -2307.84 -2471.14 -2637.57 -2806.17 -2974.41 -3094.97 -1495.72 -1621.35 -1753.84 -1892.6 -2037.02 -2186.46 -2340.33 -2497.89 -2658.42 -2821.15 -2978.99 -3055.44 -1554.62 -1676 -1804.03 -1938.08 -2077.59 -2222.01 -2370.64 -2522.87 -2678.04 -2835 -2992.01 -3102.18 -3094.94 -2974.53 -2806.26 -2637.6 -2471.21 -2307.81 -2148.31 -1993.3 -1844.01 -1700.25 -1562.73 -1432.53 -3055.42 -2979.04 -2821.28 -2658.5 -2497.87 -2340.25 -2186.39 -2037.01 -1892.66 -1753.85 -1621.38 -1495.77 -3102.09 -2991.98 -2835.25 -2678.2 -2522.72 -2370.47 -2221.95 -2077.75 -1938.11 -1803.83 -1676.06 -1554.82 -1309.96 -1195.47 -1089.97 -994.047 -906.959 -829.947 -763.473 -707.792 -662.902 -628.725 -606.276 -594.826 -1377.43 -1266.97 -1165.21 -1072.44 -988.539 -914.233 -850.117 -796.383 -753.037 -720.152 -698.269 -687.385 -1440.37 -1333.53 -1235.25 -1145.77 -1064.58 -992.708 -930.86 -878.981 -837.241 -805.223 -784.008 -773.696 -594.826 -606.276 -628.725 -662.902 -707.792 -763.473 -829.947 -906.959 -994.047 -1089.97 -1195.47 -1309.96 -687.385 -698.269 -720.152 -753.037 -796.383 -850.117 -914.233 -988.539 -1072.44 -1165.21 -1266.97 -1377.43 -773.696 -784.008 -805.223 -837.241 -878.981 -930.86 -992.708 -1064.58 -1145.77 -1235.25 -1333.53 -1440.37 -1432.53 -1562.73 -1700.25 -1844.01 -1993.3 -2148.31 -2307.81 -2471.21 -2637.6 -2806.26 -2974.53 -3094.94 -1495.77 -1621.38 -1753.85 -1892.66 -2037.01 -2186.39 -2340.25 -2497.87 -2658.5 -2821.28 -2979.04 -3055.42 -1554.82 -1676.06 -1803.83 -1938.11 -2077.75 -2221.95 -2370.47 -2522.72 -2678.2 -2835.25 -2991.98 -3102.09 
</DataArray>
<DataArray Name="Strain_33" format="ascii" type="Float64">
0 0 0 0 0 0 0 0 0 0 0 0 0 0 0 0 0 0 0 0 0 0 0 0 0 0 0 0 0 0 0 0 0 0 0 0 0 0 0 0 0 0 0 0 0 0 0 0 0 0 0 0 0 0 0 0 0 0 0 0 0 0 0 0 0 0 0 0 0 0 0 0 0 0 0 0 0 0 0 0 0 0 0 0 0 0 0 0 0 0 0 0 0 0 0 0 0 0 0 0 0 0 0 0 0 0 0 0 0 0 0 0 0 0 0 0 0 0 0 0 0 0 0 0 0 0 0 0 0 0 0 0 0 0 0 0 0 0 0 0 0 0 0 0 0 0 0 0 0 0 0 0 0 0 0 0 0 0 0 0 0 0 0 0 0 0 0 0 0 0 0 0 0 0 0 0 0 0 0 0 0 0 0 0 0 0 0 0 0 0 0 0 0 0 0 0 0 0 0 0 0 0 0 0 0 0 0 0 0 0 0 0 0 0 0 0 0 0 0 0 0 0 0 0 0 0 0 0 0 0 0 0 0 0 0 0 0 0 0 0 0 0 0 0 0 0 0 0 0 0 0 0 0 0 0 0 0 0 0 0 0 0 0 0 0 0 0 0 0 0 0 0 0 0 0 0 0 0 0 0 0 0 0 0 0 0 0 0 
</DataArray>
<DataArray Name="Stress_11" format="ascii" type="Float64">
0 0 0 0 0 0 0 0 0 0 0 0 0 0 0 0 0 0 0 0 0 0 0 0 0 0 0 0 0 0 0 0 0 0 0 0 0 0 0 0 0 0 0 0 0 0 0 0 0 0 0 0 0 0 0 0 0 0 0 0 0 0 0 0 0 0 0 0 0 0 0 0 0 0 0 0 0 0 0 0 0 0 0 0 0 0 0 0 0 0 0 0 0 0 0 0 0 0 0 0 0 0 0 0 0 0 0 0 0 0 0 0 0 0 0 0 0 0 0 0 0 0 0 0 0 0 0 0 0 0 0 0 0 0 0 0 0 0 0 0 0 0 0 0 0 0 0 0 0 0 0 0 0 0 0 0 0 0 0 0 0 0 0 0 0 0 0 0 0 0 0 0 0 0 0 0 0 0 0 0 0 0 0 0 0 0 0 0 0 0 0 0 0 0 0 0 0 0 0 0 0 0 0 0 0 0 0 0 0 0 0 0 0 0 0 0 0 0 0 0 0 0 0 0 0 0 0 0 0 0 0 0 0 0 0 0 0 0 0 0 0 0 0 0 0 0 0 0 0 0 0 0 0 0 0 0 0 0 0 0 0 0 0 0 0 0 0 0 0 0 0 0 0 0 0 0 0 0 0 0 0 0 0 0 0 0 0 0 
</DataArray>
<DataArray Name="Stress_22" format="ascii" type="Float64">
0 0 0 0 0 0 0 0 0 0 0 0 0 0 0 0 0 0 0 0 0 0 0 0 0 0 0 0 0 0 0 0 0 0 0 0 0 0 0 0 0 0 0 0 0 0 0 0 0 0 0 0 0 0 0 0 0 0 0 0 0 0 0 0 0 0 0 0 0 0 0 0 0 0 0 0 0 0 0 0 0 0 0 0 0 0 0 0 0 0 0 0 0 0 0 0 0 0 0 0 0 0 0 0 0 0 0 0 0 0 0 0 0 0 0 0 0 0 0 0 0 0 0 0 0 0 0 0 0 0 0 0 0 0 0 0 0 0 0 0 0 0 0 0 0 0 0 0 0 0 0 0 0 0 0 0 0 0 0 0 0 0 0 0 0 0 0 0 0 0 0 0 0 0 0 0 0 0 0 0 0 0 0 0 0 0 0 0 0 0 0 0 0 0 0 0 0 0 0 0 0 0 0 0 0 0 0 0 0 0 0 0 0 0 0 0 0 0 0 0 0 0 0 0 0 0 0 0 0 0 0 0 0 0 0 0 0 0 0 0 0 0 0 0 0 0 0 0 0 0 0 0 0 0 0 0 0 0 0 0 0 0 0 0 0 0 0 0 0 0 0 0 0 0 0 0 0 0 0 0 0 0 0 0 0 0 0 0 
</DataArray>
<DataArray Name="Stress_12" format="ascii" type="Float64">
0 0 0 0 0 0 0 0 0 0 0 0 0 0 0 0 0 0 0 0 0 0 0 0 0 0 0 0 0 0 0 0 0 0 0 0 0 0 0 0 0 0 0 0 0 0 0 0 0 0 0 0 0 0 0 0 0 0 0 0 0 0 0 0 0 0 0 0 0 0 0 0 0 0 0 0 0 0 0 0 0 0 0 0 0 0 0 0 0 0 0 0 0 0 0 0 0 0 0 0 0 0 0 0 0 0 0 0 0 0 0 0 0 0 0 0 0 0 0 0 0 0 0 0 0 0 0 0 0 0 0 0 0 0 0 0 0 0 0 0 0 0 0 0 0 0 0 0 0 0 0 0 0 0 0 0 0 0 0 0 0 0 0 0 0 0 0 0 0 0 0 0 0 0 0 0 0 0 0 0 0 0 0 0 0 0 0 0 0 0 0 0 0 0 0 0 0 0 0 0 0 0 0 0 0 0 0 0 0 0 0 0 0 0 0 0 0 0 0 0 0 0 0 0 0 0 0 0 0 0 0 0 0 0 0 0 0 0 0 0 0 0 0 0 0 0 0 0 0 0 0 0 0 0 0 0 0 0 0 0 0 0 0 0 0 0 0 0 0 0 0 0 0 0 0 0 0 0 0 0 0 0 0 0 0 0 0 0 
</DataArray>
<DataArray Name="Stress_13" format="ascii" type="Float64">
106308 108694 107994 106652 104839 102575 99868.1 96729.9 93174.2 89216.5 84871.5 80159.2 105486 105063 104216 102911 101162 98976.7 96364.7 93337.4 89906.5 86087 81894.8 77347.8 104753 101689 100696 99425.1 97734.1 95623.5 93100.1 90175.1 86861.7 83171.3 79120.7 74728.4 75098.7 69712.8 64022.8 58056.1 51837.4 45390.6 38748.2 31935.3 24984.6 17923.5 10785.4 3600.48 72465.3 67267.8 61778.4 56020.1 50018.7 43799.9 37388.4 30815.4 24108.5 17295.7 10407.3 3474.16 70011.7 64990.6 59686 54123.5 48325.7 42316.3 36123.1 29771.9 23292.3 16711.5 10055 3356.44 -3600.48 -10785.4 -17923.5 -24984.6 -31935.3 -38748.2 -45390.6 -51837.4 -58056.1 -64022.8 -69712.8 -75098.7 -3474.16 -10407.3 -17295.7 -24108.5 -30815.4 -37388.4 -43799.9 -50018.7 -56020.1 -61778.4 -67267.8 -72465.3 -3356.44 -10055 -16711.5 -23292.3 -29771.9 -36123.1 -42316.3 -48325.7 -54123.5 -59686 -64990.6 -70011.7 -80159.2 -84871.5 -89216.5 -93174.2 -96729.9 -99868.1 -102575 -104839 -106652 -107994 -108694 -106308 -77347.8 -81894.8 -86087 -89906.5 -93337.4 -96364.7 -98976.7 -101162 -102911 -104216 -105063 -105486 -74728.4 -79120.7 -83171.3 -86861.7 -90175.1 -93100.1 -95623.5 -97734.1 -99425.1 -100696 -101689 -104753 10.6306 10.8689 10.7998 10.6646 10.4838 10.2581 9.98744 9.67285 9.31612 8.92232 8.4882 8.01622 10.5482 10.5064 10.4217 10.2905 10.1159 9.89808 9.63708 9.33358 8.98994 8.60908 8.19041 7.73505 10.4746 10.1695 10.0699 9.94113 9.77291 9.5627 9.311 9.01747 8.68499 8.31769 7.91336 7.47295 7.51 6.97136 6.40152 5.80496 5.18455 4.5395 3.87489 3.19322 2.49834 1.79196 1.07806 0.360182 7.24631 6.72668 6.17778 5.60179 5.00191 4.3803 3.7392 3.08167 2.4105 1.729 1.04054 0.347505 7.00032 6.49883 5.96944 5.41221 4.83194 4.23188 3.61303 2.97784 2.32858 1.67011 1.00563 0.336031 -0.360182 -1.07806 -1.79196 -2.49834 -3.19322 -3.87489 -4.5395 -5.18455 -5.80496 -6.40152 -6.97136 -7.51 -0.347505 -1.04054 -1.729 -2.4105 -3.08167 -3.7392 -4.3803 -5.00191 -5.60179 -6.17778 -6.72668 -7.24631 -0.336031 -1.00563 -1.67011 -2.32858 -2.97784 -3.61303 -4.23188 -4.83194 -5.41221 -5.96944 -6.49883 -7.00032 -8.01622 -8.4882 -8.92232 -9.31612 -9.67285 -9.98744 -10.2581 -10.4838 -10.6646 -10.7998 -10.8689 -10.6306 -7.73505 -8.19041 -8.60908 -8.98994 -9.33358 -9.63708 -9.89808 -10.1159 -10.2905 -10.4217 -10.5064 -10.5482 -7.47295 -7.91336 -8.31769 -8.68499 -9.01747 -9.311 -9.5627 -9.77291 -9.94113 -10.0699 -10.1695 -10.4746 
</DataArray>
<DataArray Name="Stress_23" format="ascii" type="Float64">
-128958 -123935 -116925 -109900 -102965 -96160.6 -89518 -83063.1 -76827.9 -70836.8 -65115 -59690.4 -127311 -124126 -117549 -110768 -104080 -97514.7 -91103.2 -84876.3 -78859 -73077.1 -67556.9 -62322 -129258 -124668 -118126 -111586 -105121 -98777.6 -92584.4 -86567.1 -80753.8 -75168.4 -69833.9 -64776.3 -54584.9 -49822.1 -45422.1 -41405.7 -37788.5 -34587.3 -31817.1 -29489.2 -27614.7 -26201.2 -25256.1 -24781.9 -57396 -52800.1 -48554.6 -44678.2 -41187.8 -38099.5 -35425.9 -33179.5 -31370.6 -30007.4 -29095.3 -28637.6 -60017.2 -55577.4 -51474.9 -47729.1 -44357.8 -41373.4 -38790.1 -36620.1 -34872.1 -33555.2 -32673.7 -32231.6 -24781.9 -25256.1 -26201.2 -27614.7 -29489.2 -31817.1 -34587.3 -37788.5 -41405.7 -45422.1 -49822.1 -54584.9 -28637.6 -29095.3 -30007.4 -31370.6 -33179.5 -35425.9 -38099.5 -41187.8 -44678.2 -48554.6 -52800.1 -57396 -32231.6 -32673.7 -33555.2 -34872.1 -36620.1 -38790.1 -41373.4 -44357.8 -47729.1 -51474.9 -55577.4 -60017.2 -59690.4 -65115 -70836.8 -76827.9 -83063.1 -89518 -96160.6 -102965 -109900 -116925 -123935 -128958 -62322 -67556.9 -73077.1 -78859 -84876.3 -91103.2 -97514.7 -104080 -110768 -117549 -124126 -127311 -64776.3 -69833.9 -75168.4 -80753.8 -86567.1 -92584.4 -98777.6 -105121 -111586 -118126 -124668 -129258 -12.8957 -12.394 -11.6929 -10.9901 -10.2968 -9.61597 -8.95136 -8.30548 -7.68342 -7.08443 -6.51141 -5.96891 -12.731 -12.4128 -11.7554 -11.0772 -10.4079 -9.75111 -9.11001 -8.4876 -7.88613 -7.30778 -6.7558 -6.23243 -12.9255 -12.4667 -11.8136 -11.1592 -10.5114 -9.87706 -9.2582 -8.65736 -8.07554 -7.51601 -6.98362 -6.47847 -5.45819 -4.98118 -4.54156 -4.1419 -3.77903 -3.45814 -3.18116 -2.94916 -2.76211 -2.61971 -2.52617 -2.47846 -5.73932 -5.27909 -4.85508 -4.46853 -4.11895 -3.80934 -3.54218 -3.31829 -3.13768 -3.00066 -2.90948 -2.86413 -6.0016 -5.55644 -5.14691 -4.77407 -4.43579 -4.13632 -3.87861 -3.66245 -3.48853 -3.35512 -3.26673 -3.22376 -2.47846 -2.52617 -2.61971 -2.76211 -2.94916 -3.18116 -3.45814 -3.77903 -4.1419 -4.54156 -4.98118 -5.45819 -2.86413 -2.90948 -3.00066 -3.13768 -3.31829 -3.54218 -3.80934 -4.11895 -4.46853 -4.85508 -5.27909 -5.73932 -3.22376 -3.26673 -3.35512 -3.48853 -3.66245 -3.87861 -4.13632 -4.43579 -4.77407 -5.14691 -5.55644 -6.0016 -5.96891 -6.51141 -7.08443 -7.68342 -8.30548 -8.95136 -9.61597 -10.2968 -10.9901 -11.6929 -12.394 -12.8957 -6.23243 -6.7558 -7.30778 -7.88613 -8.4876 -9.11001 -9.75111 -10.4079 -11.0772 -11.7554 -12.4128 -12.731 -6.47847 -6.98362 -7.51601 -8.07554 -8.65736 -9.2582 -9.87706 -10.5114 -11.1592 -11.8136 -12.4667 -12.9255 
</DataArray>
<DataArray Name="Stress_33" format="ascii" type="Float64">
0 0 0 0 0 0 0 0 0 0 0 0 0 0 0 0 0 0 0 0 0 0 0 0 0 0 0 0 0 0 0 0 0 0 0 0 0 0 0 0 0 0 0 0 0 0 0 0 0 0 0 0 0 0 0 0 0 0 0 0 0 0 0 0 0 0 0 0 0 0 0 0 0 0 0 0 0 0 0 0 0 0 0 0 0 0 0 0 0 0 0 0 0 0 0 0 0 0 0 0 0 0 0 0 0 0 0 0 0 0 0 0 0 0 0 0 0 0 0 0 0 0 0 0 0 0 0 0 0 0 0 0 0 0 0 0 0 0 0 0 0 0 0 0 0 0 0 0 0 0 0 0 0 0 0 0 0 0 0 0 0 0 0 0 0 0 0 0 0 0 0 0 0 0 0 0 0 0 0 0 0 0 0 0 0 0 0 0 0 0 0 0 0 0 0 0 0 0 0 0 0 0 0 0 0 0 0 0 0 0 0 0 0 0 0 0 0 0 0 0 0 0 0 0 0 0 0 0 0 0 0 0 0 0 0 0 0 0 0 0 0 0 0 0 0 0 0 0 0 0 0 0 0 0 0 0 0 0 0 0 0 0 0 0 0 0 0 0 0 0 0 0 0 0 0 0 0 0 0 0 0 0 0 0 0 0 0 0 
</DataArray>
</CellData>
<Points>
<DataArray NumberOfComponents="3" format="ascii" type="Float64">
0 0.09 0 -0.06364 0.06364 0 -0.005886 0.089807 0 -0.011747 0.08923 0 -0.017558 0.088271 0 -0.023294 0.086933 0 -0.02893 0.085224 0 -0.034442 0.083149 0 -0.039806 0.080719 0 -0.045 0.077942 0 -0.050001 0.074832 0 -0.054789 0.071402 0 -0.059341 0.067666 0 -0.065997 0.065997 0 0 0.093333 0 -0.006104 0.093133 0 -0.012182 0.092535 0 -0.018208 0.09154 0 -0.024156 0.090153 0 -0.030001 0.08838 0 -0.035717 0.086229 0 -0.04128 0.083708 0 -0.046667 0.080829 0 -0.051853 0.077604 0 -0.056818 0.074046 0 -0.061539 0.070172 0 -0.068354 0.068354 0 0 0.096667 0 -0.006322 0.09646 0 -0.012618 0.09584 0 -0.018859 0.094809 0 -0.025019 0.093373 0 -0.031072 0.091537 0 -0.036993 0.089308 0 -0.042755 0.086698 0 -0.048333 0.083716 0 -0.053705 0.080375 0 -0.058847 0.076691 0 -0.063737 0.072678 0 -0.070711 0.070711 0 0 0.1 0 -0.00654 0.099786 0 -0.013053 0.099144 0 -0.019509 0.098079 0 -0.025882 0.096593 0 -0.032144 0.094693 0 -0.038268 0.092388 0 -0.044229 0.089687 0 -0.05 0.086603 0 -0.055557 0.083147 0 -0.060876 0.079335 0 -0.065935 0.075184 0 -0.09 0 0 -0.067666 0.059341 0 -0.071402 0.054789 0 -0.074832 0.050001 0 -0.077942 0.045 0 -0.080719 0.039806 0 -0.083149 0.034442 0 -0.085224 0.02893 0 -0.086933 0.023294 0 -0.088271 0.017558 0 -0.08923 0.011747 0 -0.089807 0.005886 0 -0.093333 0 0 -0.070172 0.061539 0 -0.074046 0.056818 0 -0.077604 0.051853 0 -0.080829 0.046667 0 -0.083708 0.04128 0 -0.086229 0.035717 0 -0.08838 0.030001 0 -0.090153 0.024156 0 -0.09154 0.018208 0 -0.092535 0.012182 0 -0.093133 0.006104 0 -0.096667 0 0 -0.072678 0.063737 0 -0.076691 0.058847 0 -0.080375 0.053705 0 -0.083716 0.048333 0 -0.086698 0.042755 0 -0.089308 0.036993 0 -0.091537 0.031072 0 -0.093373 0.025019 0 -0.094809 0.018859 0 -0.09584 0.012618 0 -0.09646 0.006322 0 -0.1 0 0 -0.075184 0.065935 0 -0.079335 0.060876 0 -0.083147 0.055557 0 -0.086603 0.05 0 -0.089687 0.044229 0 -0.092388 0.038268 0 -0.094693 0.032144 0 -0.096593 0.025882 0 -0.098079 0.019509 0 -0.099144 0.013053 0 -0.099786 0.00654 0 -0.06364 -0.06364 0 -0.089807 -0.005886 0 -0.08923 -0.011747 0 -0.088271 -0.017558 0 -0.086933 -0.023294 0 -0.085224 -0.02893 0 -0.083149 -0.034442 0 -0.080719 -0.039806 0 -0.077942 -0.045 0 -0.074832 -0.050001 0 -0.071402 -0.054789 0 -0.067666 -0.059341 0 -0.065997 -0.065997 0 -0.093133 -0.006104 0 -0.092535 -0.012182 0 -0.09154 -0.018208 0 -0.090153 -0.024156 0 -0.08838 -0.030001 0 -0.086229 -0.035717 0 -0.083708 -0.04128 0 -0.080829 -0.046667 0 -0.077604 -0.051853 0 -0.074046 -0.056818 0 -0.070172 -0.061539 0 -0.068354 -0.068354 0 -0.09646 -0.006322 0 -0.09584 -0.012618 0 -0.094809 -0.018859 0 -0.093373 -0.025019 0 -0.091537 -0.031072 0 -0.089308 -0.036993 0 -0.086698 -0.042755 0 -0.083716 -0.048333 0 -0.080375 -0.053705 0 -0.076691 -0.058847 0 -0.072678 -0.063737 0 -0.070711 -0.070711 0 -0.099786 -0.00654 0 -0.099144 -0.013053 0 -0.098079 -0.019509 0 -0.096593 -0.025882 0 -0.094693 -0.032144 0 -0.092388 -0.038268 0 -0.089687 -0.044229 0 -0.086603 -0.05 0 -0.083147 -0.055557 0 -0.079335 -0.060876 0 -0.075184 -0.065935 0 0 -0.09 0 -0.059341 -0.067666 0 -0.054789 -0.071402 0 -0.050001 -0.074832 0 -0.045 -0.077942 0 -0.039806 -0.080719 0 -0.034442 -0.083149 0 -0.02893 -0.085224 0 -0.023294 -0.086933 0 -0.017558 -0.088271 0 -0.011747 -0.08923 0 -0.005886 -0.089807 0 0 -0.093333 0 -0.061539 -0.070172 0 -0.056818 -0.074046 0 -0.051853 -0.077604 0 -0.046667 -0.080829 0 -0.04128 -0.083708 0 -0.035717 -0.086229 0 -0.030001 -0.08838 0 -0.024156 -0.090153 0 -0.018208 -0.09154 0 -0.012182 -0.092535 0 -0.006104 -0.093133 0 0 -0.096667 0 -0.063737 -0.072678 0 -0.058847 -0.076691 0 -0.053705 -0.080375 0 -0.048333 -0.083716 0 -0.042755 -0.086698 0 -0.036993 -0.089308 0 -0.031072 -0.091537 0 -0.025019 -0.093373 0 -0.018859 -0.094809 0 -0.012618 -0.09584 0 -0.006322 -0.09646 0 0 -0.1 0 -0.065935 -0.075184 0 -0.060876 -0.079335 0 -0.055557 -0.083147 0 -0.05 -0.086603 0 -0.044229 -0.089687 0 -0.038268 -0.092388 0 -0.032144 -0.094693 0 -0.025882 -0.096593 0 -0.019509 -0.098079 0 -0.013053 -0.099144 0 -0.00654 -0.099786 0 0.06364 -0.06364 0 0.005886 -0.089807 0 0.011747 -0.08923 0 0.017558 -0.088271 0 0.023294 -0.086933 0 0.02893 -0.085224 0 0.034442 -0.083149 0 0.039806 -0.080719 0 0.045 -0.077942 0 0.050001 -0.074832 0 0.054789 -0.071402 0 0.059341 -0.067666 0 0.065997 -0.065997 0 0.006104 -0.093133 0 0.012182 -0.092535 0 0.018208 -0.09154 0 0.024156 -0.090153 0 0.030001 -0.08838 0 0.035717 -0.086229 0 0.04128 -0.083708 0 0.046667 -0.080829 0 0.051853 -0.077604 0 0.056818 -0.074046 0 0.061539 -0.070172 0 0.068354 -0.068354 0 0.006322 -0.09646 0 0.012618 -0.09584 0 0.018859 -0.094809 0 0.025019 -0.093373 0 0.031072 -0.091537 0 0.036993 -0.089308 0 0.042755 -0.086698 0 0.048333 -0.083716 0 0.053705 -0.080375 0 0.058847 -0.076691 0 0.063737 -0.072678 0 0.070711 -0.070711 0 0.00654 -0.099786 0 0.013053 -0.099144 0 0.019509 -0.098079 0 0.025882 -0.096593 0 0.032144 -0.094693 0 0.038268 -0.092388 0 0.044229 -0.089687 0 0.05 -0.086603 0 0.055557 -0.083147 0 0.060876 -0.079335 0 0.065935 -0.075184 0 0.09 0 0 0.067666 -0.059341 0 0.071402 -0.054789 0 0.074832 -0.050001 0 0.077942 -0.045 0 0.080719 -0.039806 0 0.083149 -0.034442 0 0.085224 -0.02893 0 0.086933 -0.023294 0 0.088271 -0.017558 0 0.08923 -0.011747 0 0.089807 -0.005886 0 0.093333 0 0 0.070172 -0.061539 0 0.074046 -0.056818 0 0.077604 -0.051853 0 0.080829 -0.046667 0 0.083708 -0.04128 0 0.086229 -0.035717 0 0.08838 -0.030001 0 0.090153 -0.024156 0 0.09154 -0.018208 0 0.092535 -0.012182 0 0.093133 -0.006104 0 0.096667 0 0 0.072678 -0.063737 0 0.076691 -0.058847 0 0.080375 -0.053705 0 0.083716 -0.048333 0 0.086698 -0.042755 0 0.089308 -0.036993 0 0.091537 -0.031072 0 0.093373 -0.025019 0 0.094809 -0.018859 0 0.09584 -0.012618 0 0.09646 -0.006322 0 0.1 0 0 0.075184 -0.065935 0 0.079335 -0.060876 0 0.083147 -0.055557 0 0.086603 -0.05 0 0.089687 -0.044229 0 0.092388 -0.038268 0 0.094693 -0.032144 0 0.096593 -0.025882 0 0.098079 -0.019509 0 0.099144 -0.013053 0 0.099786 -0.00654 0 0.06364 0.06364 0 0.089807 0.005886 0 0.08923 0.011747 0 0.088271 0.017558 0 0.086933 0.023294 0 0.085224 0.02893 0 0.083149 0.034442 0 0.080719 0.039806 0 0.077942 0.045 0 0.074832 0.050001 0 0.071402 0.054789 0 0.067666 0.059341 0 0.065997 0.065997 0 0.093133 0.006104 0 0.092535 0.012182 0 0.09154 0.018208 0 0.090153 0.024156 0 0.08838 0.030001 0 0.086229 0.035717 0 0.083708 0.04128 0 0.080829 0.046667 0 0.077604 0.051853 0 0.074046 0.056818 0 0.070172 0.061539 0 0.068354 0.068354 0 0.09646 0.006322 0 0.09584 0.012618 0 0.094809 0.018859 0 0.093373 0.025019 0 0.091537 0.031072 0 0.089308 0.036993 0 0.086698 0.042755 0 0.083716 0.048333 0 0.080375 0.053705 0 0.076691 0.058847 0 0.072678 0.063737 0 0.070711 0.070711 0 0.099786 0.00654 0 0.099144 0.013053 0 0.098079 0.019509 0 0.096593 0.025882 0 0.094693 0.032144 0 0.092388 0.038268 0 0.089687 0.044229 0 0.086603 0.05 0 0.083147 0.055557 0 0.079335 0.060876 0 0.075184 0.065935 0 0.059341 0.067666 0 0.054789 0.071402 0 0.050001 0.074832 0 0.045 0.077942 0 0.039806 0.080719 0 0.034442 0.083149 0 0.02893 0.085224 0 0.023294 0.086933 0 0.017558 0.088271 0 0.011747 0.08923 0 0.005886 0.089807 0 0.061539 0.070172 0 0.056818 0.074046 0 0.051853 0.077604 0 0.046667 0.080829 0 0.04128 0.083708 0 0.035717 0.086229 0 0.030001 0.08838 0 0.024156 0.090153 0 0.018208 0.09154 0 0.012182 0.092535 0 0.006104 0.093133 0 0.063737 0.072678 0 0.058847 0.076691 0 0.053705 0.080375 0 0.048333 0.083716 0 0.042755 0.086698 0 0.036993 0.089308 0 0.031072 0.091537 0 0.025019 0.093373 0 0.018859 0.094809 0 0.012618 0.09584 0 0.006322 0.09646 0 0.065935 0.075184 0 0.060876 0.079335 0 0.055557 0.083147 0 0.05 0.086603 0 0.044229 0.089687 0 0.038268 0.092388 0 0.032144 0.094693 0 0.025882 0.096593 0 0.019509 0.098079 0 0.013053 0.099144 0 0.00654 0.099786 0 
</DataArray>
</Points>
<Cells>
<DataArray Name="connectivity" format="ascii" type="Int64">