<?xml version="1.0"?>
<VTKFile byte_order="LittleEndian" type="UnstructuredGrid" version="0.1">
<UnstructuredGrid>
<Piece NumberOfCells="288" NumberOfPoints="384">
<PointData>
<DataArray Name="Warping_X" format="ascii" type="Float64">
-0 -0 0 0 0 0 0 0 0 0 0 0 0 0 -0 0 0 0 0 0 0 0 0 0 0 0 0 0 0 0 0 0 0 0 0 0 0 0 0 0 0 0 0 0 0 0 0 0 0 0 0 0 0 0 0 0 0 0 0 0 0 0 0 0 0 0 0 0 0 0 0 0 0 0 0 0 0 0 0 0 0 0 0 0 0 0 0 0 0 0 0 0 0 0 0 0 0 0 0 0 0 0 0 0 0 0 0 0 0 0 0 0 0 0 0 0 0 0 0 0 0 0 0 0 0 0 0 0 0 0 0 0 0 0 0 0 0 0 0 0 0 0 0 0 0 0 0 0 0 0 0 0 0 0 0 0 0 0 0 0 0 0 0 0 0 0 0 0 0 0 0 0 0 0 0 0 0 0 0 0 0 0 0 0 0 0 0 0 0 0 0 0 0 0 0 0 0 0 0 0 0 0 0 0 0 0 0 0 -0 0 0 0 0 0 0 0 0 0 0 0 0 0 0 0 0 0 0 0 0 0 0 0 0 0 0 0 0 0 0 0 0 0 0 0 0 0 0 0 0 0 0 0 0 0 0 0 0 0 0 0 0 0 0 0 0 0 0 0 0 0 0 0 0 0 0 0 0 0 0 0 0 0 0 0 0 0 0 0 0 0 0 0 0 0 0 0 0 0 0 0 0 0 0 0 0 0 0 0 0 0 0 0 0 0 0 0 -0 0 0 0 0 0 0 0 0 0 0 0 0 0 0 0 0 0 0 0 0 0 0 0 0 0 0 0 0 0 0 0 0 0 0 0 0 0 0 0 0 0 0 0 0 0 0 0 0 0 0 0 0 0 0 0 0 0 0 0 0 0 0 0 0 0 0 0 
</DataArray>
<DataArray Name="Warping_Y" format="ascii" type="Float64">
0 -0 0 0 0 0 0 0 0 0 0 0 0 0 -0 0 0 0 0 0 0 0 0 0 0 0 0 0 0 0 0 0 0 0 0 0 0 0 0 0 0 0 0 0 0 0 0 0 0 0 0 0 -0 0 0 0 0 0 0 0 0 0 0 0 0 0 0 0 0 0 0 0 0 0 0 0 0 0 0 0 0 0 0 0 0 0 0 0 0 0 0 0 0 0 0 0 0 0 0 0 -0 0 0 0 0 0 0 0 0 0 0 0 0 0 0 0 0 0 0 0 0 0 0 0 0 0 0 0 0 0 0 0 0 0 0 0 0 0 0 0 0 0 0 0 0 0 0 0 0 0 0 0 0 0 0 0 0 0 0 0 0 0 0 0 0 0 0 0 0 0 0 0 0 0 0 0 0 0 0 0 0 0 0 0 0 0 0 0 0 0 0 0 0 0 0 0 0 0 0 0 0 0 0 0 0 0 0 0 0 0 0 0 0 0 0 0 0 0 0 0 -0 0 0 0 0 0 0 0 0 0 0 0 0 0 0 0 0 0 0 0 0 0 0 0 0 0 0 0 0 0 0 0 0 0 0 0 -0 0 0 0 0 0 0 0 0 0 0 0 0 0 0 0 0 0 0 0 0 0 0 0 0 0 0 0 0 0 0 0 0 0 0 0 0 0 0 0 0 0 0 0 0 0 0 0 -0 0 0 0 0 0 0 0 0 0 0 0 0 0 0 0 0 0 0 0 0 0 0 0 0 0 0 0 0 0 0 0 0 0 0 0 0 0 0 0 0 0 0 0 0 0 0 0 0 0 0 0 0 0 0 0 0 0 0 0 0 0 0 0 0 0 0 0 0 0 0 0 0 0 0 0 0 0 0 0 
</DataArray>
<DataArray Name="Warping_Z" format="ascii" type="Float64">
0 0 0 0 0 0 0 0 0 0 0 0 0 0 0 0 0 0 0 0 0 0 0 0 0 0 0 0 0 0 0 0 0 0 0 0 0 0 0 0 0 0 0 0 0 0 0 0 0 0 0 0 0 0 0 0 0 0 0 0 0 0 0 0 0 0 0 0 0 0 0 0 0 0 0 0 0 0 0 0 0 0 0 0 0 0 0 0 0 0 0 0 0 0 0 0 0 0 0 0 0 0 0 0 0 0 0 0 0 0 0 0 0 0 0 0 0 0 0 0 0 0 0 0 0 0 0 0 0 0 0 0 0 0 0 0 0 0 0 0 0 0 0 0 0 0 0 0 0 0 0 0 0 0 0 0 0 0 0 0 0 0 0 0 0 0 0 0 0 0 0 0 0 0 0 0 0 0 0 0 0 0 0 0 0 0 0 0 0 0 0 0 0 0 0 0 0 0 0 0 0 0 0 0 0 0 0 0 0 0 0 0 0 0 0 0 0 0 0 0 0 0 0 0 0 0 0 0 0 0 0 0 0 0 0 0 0 0 0 0 0 0 0 0 0 0 0 0 0 0 0 0 0 0 0 0 0 0 0 0 0 0 0 0 0 0 0 0 0 0 0 0 0 0 0 0 0 0 0 0 0 0 0 0 0 0 0 0 0 0 0 0 0 0 0 0 0 0 0 0 0 0 0 0 0 0 0 0 0 0 0 0 0 0 0 0 0 0 0 0 0 0 0 0 0 0 0 0 0 0 0 0 0 0 0 0 0 0 0 0 0 0 0 0 0 0 0 0 0 0 0 0 0 0 0 0 0 0 0 0 0 0 0 0 0 0 0 0 0 0 0 0 0 0 0 0 0 0 0 0 0 0 0 0 
</DataArray>
</PointData>
<CellData>
<DataArray Name="MaterialId" format="ascii" type="Float64">
1 1 1 1 1 1 1 1 1 1 1 1 1 1 1 1 1 1 1 1 1 1 1 1 1 1 1 1 1 1 1 1 1 1 1 1 1 1 1 1 1 1 1 1 1 1 1 1 1 1 1 1 1 1 1 1 1 1 1 1 1 1 1 1 1 1 1 1 1 1 1 1 1 1 1 1 1 1 1 1 1 1 1 1 1 1 1 1 1 1 1 1 1 1 1 1 1 1 1 1 1 1 1 1 1 1 1 1 1 1 1 1 1 1 1 1 1 1 1 1 1 1 1 1 1 1 1 1 1 1 1 1 1 1 1 1 1 1 1 1 1 1 1 1 2 2 2 2 2 2 2 2 2 2 2 2 2 2 2 2 2 2 2 2 2 2 2 2 2 2 2 2 2 2 2 2 2 2 2 2 2 2 2 2 2 2 2 2 2 2 2 2 2 2 2 2 2 2 2 2 2 2 2 2 2 2 2 2 2 2 2 2 2 2 2 2 2 2 2 2 2 2 2 2 2 2 2 2 2 2 2 2 2 2 2 2 2 2 2 2 2 2 2 2 2 2 2 2 2 2 2 2 2 2 2 2 2 2 2 2 2 2 2 2 2 2 2 2 2 2 2 2 2 2 2 2 2 2 2 2 2 2 2 2 2 2 2 2 
</DataArray>
<DataArray Name="FiberAngle" format="ascii" type="Float64">
0 0 0 0 0 0 0 0 0 0 0 0 0 0 0 0 0 0 0 0 0 0 0 0 0 0 0 0 0 0 0 0 0 0 0 0 0 0 0 0 0 0 0 0 0 0 0 0 0 0 0 0 0 0 0 0 0 0 0 0 0 0 0 0 0 0 0 0 0 0 0 0 0 0 0 0 0 0 0 0 0 0 0 0 0 0 0 0 0 0 0 0 0 0 0 0 0 0 0 0 0 0 0 0 0 0 0 0 0 0 0 0 0 0 0 0 0 0 0 0 0 0 0 0 0 0 0 0 0 0 0 0 0 0 0 0 0 0 0 0 0 0 0 0 0 0 0 0 0 0 0 0 0 0 0 0 0 0 0 0 0 0 0 0 0 0 0 0 0 0 0 0 0 0 0 0 0 0 0 0 0 0 0 0 0 0 0 0 0 0 0 0 0 0 0 0 0 0 0 0 0 0 0 0 0 0 0 0 0 0 0 0 0 0 0 0 0 0 0 0 0 0 0 0 0 0 0 0 0 0 0 0 0 0 0 0 0 0 0 0 0 0 0 0 0 0 0 0 0 0 0 0 0 0 0 0 0 0 0 0 0 0 0 0 0 0 0 0 0 0 0 0 0 0 0 0 0 0 0 0 0 0 0 0 0 0 0 0 
</DataArray>
<DataArray Name="Strain_11" format="ascii" type="Float64">
0 0 0 0 0 0 0 0 0 0 0 0 0 0 0 0 0 0 0 0 0 0 0 0 0 0 0 0 0 0 0 0 0 0 0 0 0 0 0 0 0 0 0 0 0 0 0 0 0 0 0 0 0 0 0 0 0 0 0 0 0 0 0 0 0 0 0 0 0 0 0 0 0 0 0 0 0 0 0 0 0 0 0 0 0 0 0 0 0 0 0 0 0 0 0 0 0 0 0 0 0 0 0 0 0 0 0 0 0 0 0 0 0 0 0 0 0 0 0 0 0 0 0 0 0 0 0 0 0 0 0 0 0 0 0 0 0 0 0 0 0 0 0 0 0 0 0 0 0 0 0 0 0 0 0 0 0 0 0 0 0 0 0 0 0 0 0 0 0 0 0 0 0 0 0 0 0 0 0 0 0 0 0 0 0 0 0 0 0 0 0 0 0 0 0 0 0 0 0 0 0 0 0 0 0 0 0 0 0 0 0 0 0 0 0 0 0 0 0 0 0 0 0 0 0 0 0 0 0 0 0 0 0 0 0 0 0 0 0 0 0 0 0 0 0 0 0 0 0 0 0 0 0 0 0 0 0 0 0 0 0 0 0 0 0 0 0 0 0 0 0 0 0 0 0 0 0 0 0 0 0 0 0 0 0 0 0 0 
</DataArray>
<DataArray Name="Strain_22" format="ascii" type="Float64">
0 0 0 0 0 0 0 0 0 0 0 0 0 0 0 0 0 0 0 0 0 0 0 0 0 0 0 0 0 0 0 0 0 0 0 0 0 0 0 0 0 0 0 0 0 0 0 0 0 0 0 0 0 0 0 0 0 0 0 0 0 0 0 0 0 0 0 0 0 0 0 0 0 0 0 0 0 0 0 0 0 0 0 0 0 0 0 0 0 0 0 0 0 0 0 0 0 0 0 0 0 0 0 0 0 0 0 0 0 0 0 0 0 0 0 0 0 0 0 0 0 0 0 0 0 0 0 0 0 0 0 0 0 0 0 0 0 0 0 0 0 0 0 0 0 0 0 0 0 0 0 0 0 0 0 0 0 0 0 0 0 0 0 0 0 0 0 0 0 0 0 0 0 0 0 0 0 0 0 0 0 0 0 0 0 0 0 0 0 0 0 0 0 0 0 0 0 0 0 0 0 0 0 0 0 0 0 0 0 0 0 0 0 0 0 0 0 0 0 0 0 0 0 0 0 0 0 0 0 0 0 0 0 0 0 0 0 0 0 0 0 0 0 0 0 0 0 0 0 0 0 0 0 0 0 0 0 0 0 0 0 0 0 0 0 0 0 0 0 0 0 0 0 0 0 0 0 0 0 0 0 0 0 0 0 0 0 0 
</DataArray>
<DataArray Name="Strain_12" format="ascii" type="Float64">
0 0 0 0 0 0 0 0 0 0 0 0 0 0 0 0 0 0 0 0 0 0 0 0 0 0 0 0 0 0 0 0 0 0 0 0 0 0 0 0 0 0 0 0 0 0 0 0 0 0 0 0 0 0 0 0 0 0 0 0 0 0 0 0 0 0 0 0 0 0 0 0 0 0 0 0 0 0 0 0 0 0 0 0 0 0 0 0 0 0 0 0 0 0 0 0 0 0 0 0 0 0 0 0 0 0 0 0 0 0 0 0 0 0 0 0 0 0 0 0 0 0 0 0 0 0 0 0 0 0 0 0 0 0 0 0 0 0 0 0 0 0 0 0 0 0 0 0 0 0 0 0 0 0 0 0 0 0 0 0 0 0 0 0 0 0 0 0 0 0 0 0 0 0 0 0 0 0 0 0 0 0 0 0 0 0 0 0 0 0 0 0 0 0 0 0 0 0 0 0 0 0 0 0 0 0 0 0 0 0 0 0 0 0 0 0 0 0 0 0 0 0 0 0 0 0 0 0 0 0 0 0 0 0 0 0 0 0 0 0 0 0 0 0 0 0 0 0 0 0 0 0 0 0 0 0 0 0 0 0 0 0 0 0 0 0 0 0 0 0 0 0 0 0 0 0 0 0 0 0 0 0 0 0 0 0 0 0 
</DataArray>
<DataArray Name="Strain_13" format="ascii" type="Float64">
21152.3 21618.4 21470.3 21195 20826.6 20368.7 19823.8 19193.8 18481.7 17690.6 16823.6 15884.6 20988.9 20896.1 20719.1 20451.5 20095.9 19654.1 19128.1 18520.4 17833.2 17069.8 16233.2 15327.2 20843 20224.9 20019 19758.4 19414.6 18987.9 18479.7 17892.5 17228.8 16491.2 15682.9 14807.6 14877.5 13806.8 12676.7 11492.6 10259.5 8981.96 7666.34 6317.59 4942.05 3545.05 2133.12 712.072 14355.5 13322.3 12232 11089.4 9899.35 8666.98 7397.13 6095.9 4768.63 3420.8 2058.27 687.073 13868.9 12870.8 11817.3 10713.5 9563.87 8373.04 7146.48 5889.18 4606.97 3305.1 1988.5 663.758 -712.072 -2133.12 -3545.05 -4942.05 -6317.59 -7666.34 -8981.96 -10259.5 -11492.6 -12676.7 -13806.8 -14877.5 -687.073 -2058.27 -3420.8 -4768.63 -6095.9 -7397.13 -8666.98 -9899.35 -11089.4 -12232 -13322.3 -14355.5 -663.758 -1988.5 -3305.1 -4606.97 -5889.18 -7146.48 -8373.04 -9563.87 -10713.5 -11817.3 -12870.8 -13868.9 -15884.6 -16823.6 -17690.6 -18481.7 -19193.8 -19823.8 -20368.7 -20826.6 -21195 -21470.3 -21618.4 -21152.3 -15327.2 -16233.2 -17069.8 -17833.2 -18520.4 -19128.1 -19654.1 -20095.9 -20451.5 -20719.1 -20896.1 -20988.9 -14807.6 -15682.9 -16491.2 -17228.8 -17892.5 -18479.7 -18987.9 -19414.6 -19758.4 -20019 -20224.9 -20843 21152 21617.5 21471.4 21194 20826.3 20370.1 19825.1 19193.6 18479.2 17692.1 16825.8 15885.3 20988.3 20896.4 20719.5 20450.4 20095.4 19655.1 19129.5 18520.2 17832 17070.7 16235.2 15327.9 20841.9 20226.3 20020 19755.9 19413.8 18988.8 18481.9 17892.6 17226.7 16492.4 15685.6 14808 14877.9 13807.1 12675.3 11491.5 10261.2 8982.91 7666.57 6317.04 4941.86 3544.32 2132.19 712.348 14355.2 13322.2 12232 11089 9899.51 8667.69 7397.92 6096.2 4767.97 3419.69 2057.91 687.257 13867.4 12870.4 11819 10713.3 9562.7 8373.61 7147.96 5890.54 4605.72 3303.05 1988.78 664.533 -712.348 -2132.19 -3544.32 -4941.86 -6317.04 -7666.57 -8982.91 -10261.2 -11491.5 -12675.3 -13807.1 -14877.9 -687.257 -2057.91 -3419.69 -4767.97 -6096.2 -7397.92 -8667.69 -9899.51 -11089 -12232 -13322.2 -14355.2 -664.533 -1988.78 -3303.05 -4605.72 -5890.54 -7147.96 -8373.61 -9562.7 -10713.3 -11819 -12870.4 -13867.4 -15885.3 -16825.8 -17692.1 -18479.2 -19193.6 -19825.1 -20370.1 -20826.3 -21194 -21471.4 -21617.5 -21152 -15327.9 -16235.2 -17070.7 -17832 -18520.2 -19129.5 -19655.1 -20095.4 -20450.4 -20719.5 -20896.4 -20988.3 -14808 -15685.6 -16492.4 -17226.7 -17892.6 -18481.9 -18988.8 -19413.8 -19755.9 -20020 -20226.3 -20841.9 
</DataArray>
<DataArray Name="Strain_23" format="ascii" type="Float64">
-25546.1 -24547.5 -23154.7 -21760.1 -20384.4 -19035.7 -17720.1 -16442.5 -15209.4 -14025.3 -12895.3 -11824.5 -25218.4 -24585.7 -23279 -21932.9 -20606.2 -19304.9 -18035 -16802.7 -15612.6 -14470 -13379.7 -12346.5 -25605.8 -24693.3 -23393.5 -22095.2 -20812.8 -19555.6 -18329 -17138.1 -15988.5 -14884.8 -13831.2 -12833.1 -10817.4 -9878.45 -9011.42 -8220.36 -7508.25 -6878.26 -6333.28 -5875.42 -5506.85 -5228.98 -5043.19 -4949.99 -11374.8 -10468.8 -9632.22 -8868.77 -8181.64 -7573.91 -7047.94 -6606.15 -6250.48 -5982.5 -5803.23 -5713.28 -11894.4 -11019.2 -10210.9 -9473.19 -8809.55 -8222.32 -7714.17 -7287.43 -6943.78 -6684.93 -6511.68 -6424.8 -4949.99 -5043.19 -5228.98 -5506.85 -5875.42 -6333.28 -6878.26 -7508.25 -8220.36 -9011.42 -9878.45 -10817.4 -5713.28 -5803.23 -5982.5 -6250.48 -6606.15 -7047.94 -7573.91 -8181.64 -8868.77 -9632.22 -10468.8 -11374.8 -6424.8 -6511.68 -6684.93 -6943.78 -7287.43 -7714.17 -8222.32 -8809.55 -9473.19 -10210.9 -11019.2 -11894.4 -11824.5 -12895.3 -14025.3 -15209.4 -16442.5 -17720.1 -19035.7 -20384.4 -21760.1 -23154.7 -24547.5 -25546.1 -12346.5 -13379.7 -14470 -15612.6 -16802.7 -18035 -19304.9 -20606.2 -21932.9 -23279 -24585.7 -25218.4 -12833.1 -13831.2 -14884.8 -15988.5 -17138.1 -18329 -19555.6 -20812.8 -22095.2 -23393.5 -24693.3 -25605.8 -25545.8 -24548.4 -23155.5 -21760.3 -20384.9 -19035.5 -17719.1 -16440.8 -15210.6 -14026.7 -12895 -11824.2 -25218.3 -24586 -23280.1 -21933.6 -20605.9 -19304.1 -18034.3 -16802.5 -15613 -14470 -13379.8 -12346.8 -25605 -24693 -23395.6 -22096.5 -20811.4 -19554.1 -18328.4 -17139.3 -15988.7 -14883 -13831.6 -12834.6 -10816.7 -9876.24 -9009.96 -8222.81 -7508.4 -6876.88 -6331.97 -5875.68 -5507.9 -5227.92 -5044.07 -4950.29 -11374.1 -10466.8 -9631.32 -8870.02 -8181.8 -7572.51 -7046.96 -6606.64 -6251.53 -5982.16 -5802.94 -5713.81 -11894 -11016.4 -10209.6 -9475.35 -8809.45 -8220.14 -7713.24 -7288.18 -6946.26 -6684 -6510.27 -6425.84 -4950.29 -5044.07 -5227.92 -5507.9 -5875.68 -6331.97 -6876.88 -7508.4 -8222.81 -9009.96 -9876.24 -10816.7 -5713.81 -5802.94 -5982.16 -6251.53 -6606.64 -7046.96 -7572.51 -8181.8 -8870.02 -9631.32 -10466.8 -11374.1 -6425.84 -6510.27 -6684 -6946.26 -7288.18 -7713.24 -8220.14 -8809.45 -9475.35 -10209.6 -11016.4 -11894 -11824.2 -12895 -14026.7 -15210.6 -16440.8 -17719.1 -19035.5 -20384.9 -21760.3 -23155.5 -24548.4 -25545.8 -12346.8 -13379.8 -14470 -15613 -16802.5 -18034.3 -19304.1 -20605.9 -21933.6 -23280.1 -24586 -25218.3 -12834.6 -13831.6 -14883 -15988.7 -17139.3 -18328.4 -19554.1 -20811.4 -22096.5 -23395.6 -24693 -25605 
</DataArray>
<DataArray Name="Strain_33" format="ascii" type="Float64">
0 0 0 0 0 0 0 0 0 0 0 0 0 0 0 0 0 0 0 0 0 0 0 0 0 0 0 0 0 0 0 0 0 0 0 0 0 0 0 0 0 0 0 0 0 0 0 0 0 0 0 0 0 0 0 0 0 0 0 0 0 0 0 0 0 0 0 0 0 0 0 0 0 0 0 0 0 0 0 0 0 0 0 0 0 0 0 0 0 0 0 0 0 0 0 0 0 0 0 0 0 0 0 0 0 0 0 0 0 0 0 0 0 0 0 0 0 0 0 0 0 0 0 0 0 0 0 0 0 0 0 0 0 0 0 0 0 0 0 0 0 0 0 0 0 0 0 0 0 0 0 0 0 0 0 0 0 0 0 0 0 0 0 0 0 0 0 0 0 0 0 0 0 0 0 0 0 0 0 0 0 0 0 0 0 0 0 0 0 0 0 0 0 0 0 0 0 0 0 0 0 0 0 0 0 0 0 0 0 0 0 0 0 0 0 0 0 0 0 0 0 0 0 0 0 0 0 0 0 0 0 0 0 0 0 0 0 0 0 0 0 0 0 0 0 0 0 0 0 0 0 0 0 0 0 0 0 0 0 0 0 0 0 0 0 0 0 0 0 0 0 0 0 0 0 0 0 0 0 0 0 0 0 0 0 0 0 0 
</DataArray>
<DataArray Name="Stress_11" format="ascii" type="Float64">
0 0 0 0 0 0 0 0 0 0 0 0 0 0 0 0 0 0 0 0 0 0 0 0 0 0 0 0 0 0 0 0 0 0 0 0 0 0 0 0 0 0 0 0 0 0 0 0 0 0 0 0 0 0 0 0 0 0 0 0 0 0 0 0 0 0 0 0 0 0 0 0 0 0 0 0 0 0 0 0 0 0 0 0 0 0 0 0 0 0 0 0 0 0 0 0 0 0 0 0 0 0 0 0 0 0 0 0 0 0 0 0 0 0 0 0 0 0 0 0 0 0 0 0 0 0 0 0 0 0 0 0 0 0 0 0 0 0 0 0 0 0 0 0 0 0 0 0 0 0 0 0 0 0 0 0 0 0 0 0 0 0 0 0 0 0 0 0 0 0 0 0 0 0 0 0 0 0 0 0 0 0 0 0 0 0 0 0 0 0 0 0 0 0 0 0 0 0 0 0 0 0 0 0 0 0 0 0 0 0 0 0 0 0 0 0 0 0 0 0 0 0 0 0 0 0 0 0 0 0 0 0 0 0 0 0 0 0 0 0 0 0 0 0 0 0 0 0 0 0 0 0 0 0 0 0 0 0 0 0 0 0 0 0 0 0 0 0 0 0 0 0 0 0 0 0 0 0 0 0 0 0 0 0 0 0 0 0 
</DataArray>
<DataArray Name="Stress_22" format="ascii" type="Float64">
0 0 0 0 0 0 0 0 0 0 0 0 0 0 0 0 0 0 0 0 0 0 0 0 0 0 0 0 0 0 0 0 0 0 0 0 0 0 0 0 0 0 0 0 0 0 0 0 0 0 0 0 0 0 0 0 0 0 0 0 0 0 0 0 0 0 0 0 0 0 0 0 0 0 0 0 0 0 0 0 0 0 0 0 0 0 0 0 0 0 0 0 0 0 0 0 0 0 0 0 0 0 0 0 0 0 0 0 0 0 0 0 0 0 0 0 0 0 0 0 0 0 0 0 0 0 0 0 0 0 0 0 0 0 0 0 0 0 0 0 0 0 0 0 0 0 0 0 0 0 0 0 0 0 0 0 0 0 0 0 0 0 0 0 0 0 0 0 0 0 0 0 0 0 0 0 0 0 0 0 0 0 0 0 0 0 0 0 0 0 0 0 0 0 0 0 0 0 0 0 0 0 0 0 0 0 0 0 0 0 0 0 0 0 0 0 0 0 0 0 0 0 0 0 0 0 0 0 0 0 0 0 0 0 0 0 0 0 0 0 0 0 0 0 0 0 0 0 0 0 0 0 0 0 0 0 0 0 0 0 0 0 0 0 0 0 0 0 0 0 0 0 0 0 0 0 0 0 0 0 0 0 0 0 0 0 0 0 
</DataArray>
<DataArray Name="Stress_12" format="ascii" type="Float64">
0 0 0 0 0 0 0 0 0 0 0 0 0 0 0 0 0 0 0 0 0 0 0 0 0 0 0 0 0 0 0 0 0 0 0 0 0 0 0 0 0 0 0 0 0 0 0 0 0 0 0 0 0 0 0 0 0 0 0 0 0 0 0 0 0 0 0 0 0 0 0 0 0 0 0 0 0 0 0 0 0 0 0 0 0 0 0 0 0 0 0 0 0 0 0 0 0 0 0 0 0 0 0 0 0 0 0 0 0 0 0 0 0 0 0 0 0 0 0 0 0 0 0 0 0 0 0 0 0 0 0 0 0 0 0 0 0 0 0 0 0 0 0 0 0 0 0 0 0 0 0 0 0 0 0 0 0 0 0 0 0 0 0 0 0 0 0 0 0 0 0 0 0 0 0 0 0 0 0 0 0 0 0 0 0 0 0 0 0 0 0 0 0 0 0 0 0 0 0 0 0 0 0 0 0 0 0 0 0 0 0 0 0 0 0 0 0 0 0 0 0 0 0 0 0 0 0 0 0 0 0 0 0 0 0 0 0 0 0 0 0 0 0 0 0 0 0 0 0 0 0 0 0 0 0 0 0 0 0 0 0 0 0 0 0 0 0 0 0 0 0 0 0 0 0 0 0 0 0 0 0 0 0 0 0 0 0 0 
</DataArray>
<DataArray Name="Stress_13" format="ascii" type="Float64">
881354 900772 894604 883133 867781 848704 825997 799747 770075 737114 700988 661863 874543 870677 863303 852152 837335 818926 797011 771689 743058 711247 676390 638638 868464 842710 834133 823274 808948 791167 769994 745526 717874 687137 653457 616989 619900 575287 528200 478864 427483 374251 319433 263235 205920 147712 88880.6 29669.9 598151 555099 509673 462061 412476 361127 308216 253998 198695 142534 85762 28628.3 577877 536287 492390 446399 398498 348879 297772 245385 191959 137713 82854.9 27656.8 -29669.9 -88880.6 -147712 -205920 -263235 -319433 -374251 -427483 -478864 -528200 -575287 -619900 -28628.3 -85762 -142534 -198695 -253998 -308216 -361127 -412476 -462061 -509673 -555099 -598151 -27656.8 -82854.9 -137713 -191959 -245385 -297772 -348879 -398498 -446399 -492390 -536287 -577877 -661863 -700988 -737114 -770075 -799747 -825997 -848704 -867781 -883133 -894604 -900772 -881354 -638638 -676390 -711247 -743058 -771689 -797011 -818926 -837335 -852152 -863303 -870677 -874543 -616989 -653457 -687137 -717874 -745526 -769994 -791167 -808948 -823274 -834133 -842710 -868464 88.1342 90.0736 89.4648 88.3089 86.777 84.8759 82.6054 79.9741 76.9973 73.7175 70.108 66.1894 87.4521 87.0689 86.3318 85.2108 83.7314 81.8967 79.707 77.1682 74.3006 71.1285 67.6473 63.8667 86.842 84.277 83.4172 82.317 80.8916 79.1206 77.0084 74.553 71.7784 68.7191 65.3571 61.7005 61.9916 57.5298 52.8142 47.8815 42.7554 37.4291 31.9443 26.3212 20.5913 14.7681 8.88418 2.96814 59.8138 55.5096 50.9672 46.2047 41.2483 36.1157 30.8249 25.401 19.8667 14.2488 8.5747 2.86359 57.7813 53.6272 49.2464 44.6391 39.8449 34.8903 29.7834 24.5441 19.1906 13.7628 8.28665 2.76891 -2.96814 -8.88418 -14.7681 -20.5913 -26.3212 -31.9443 -37.4291 -42.7554 -47.8815 -52.8142 -57.5298 -61.9916 -2.86359 -8.5747 -14.2488 -19.8667 -25.401 -30.8249 -36.1157 -41.2483 -46.2047 -50.9672 -55.5096 -59.8138 -2.76891 -8.28665 -13.7628 -19.1906 -24.5441 -29.7834 -34.8903 -39.8449 -44.6391 -49.2464 -53.6272 -57.7813 -66.1894 -70.108 -73.7175 -76.9973 -79.9741 -82.6054 -84.8759 -86.777 -88.3089 -89.4648 -90.0736 -88.1342 -63.8667 -67.6473 -71.1285 -74.3006 -77.1682 -79.707 -81.8967 -83.7314 -85.2108 -86.3318 -87.0689 -87.4521 -61.7005 -65.3571 -68.7191 -71.7784 -74.553 -77.0084 -79.1206 -80.8916 -82.317 -83.4172 -84.277 -86.842 
</DataArray>
<DataArray Name="Stress_23" format="ascii" type="Float64">
-1.06443e+06 -1.02282e+06 -964788 -906677 -849356 -793160 -738342 -685111 -633729 -584393 -537306 -492694 -1.05078e+06 -1.02441e+06 -969967 -913880 -858597 -804376 -751466 -700117 -650532 -602921 -557494 -514442 -1.06692e+06 -1.0289e+06 -974738 -920641 -867206 -814821 -763714 -714095 -666194 -620203 -576307 -534716 -450730 -411605 -375479 -342518 -312846 -286596 -263889 -244811 -229454 -217876 -210135 -206251 -473955 -436203 -401346 -369535 -340904 -315582 -293667 -275259 -260439 -249273 -241803 -238055 -495604 -459136 -425456 -394719 -367068 -342599 -321426 -303645 -289326 -278541 -271322 -267702 -206251 -210135 -217876 -229454 -244811 -263889 -286596 -312846 -342518 -375479 -411605 -450730 -238055 -241803 -249273 -260439 -275259 -293667 -315582 -340904 -369535 -401346 -436203 -473955 -267702 -271322 -278541 -289326 -303645 -321426 -342599 -367068 -394719 -425456 -459136 -495604 -492694 -537306 -584393 -633729 -685111 -738342 -793160 -849356 -906677 -964788 -1.02282e+06 -1.06443e+06 -514442 -557494 -602921 -650532 -700117 -751466 -804376 -858597 -913880 -969967 -1.02441e+06 -1.05078e+06 -534716 -576307 -620203 -666194 -714095 -763714 -814821 -867206 -920641 -974738 -1.0289e+06 -1.06692e+06 -106.442 -102.286 -96.4819 -90.6685 -84.9379 -79.315 -73.8302 -68.5039 -63.3778 -58.4451 -53.7295 -49.2678 -105.077 -102.443 -97.0013 -91.3907 -85.8584 -80.4344 -75.1437 -70.011 -65.0547 -60.2921 -55.7498 -51.4455 -106.688 -102.888 -97.4823 -92.0694 -86.7149 -81.4759 -76.369 -71.4144 -66.6202 -62.0129 -57.6321 -53.4781 -45.07 -41.1513 -37.5418 -34.262 -31.2852 -28.6539 -26.3834 -24.4822 -22.9498 -21.7832 -21.0171 -20.6264 -47.3926 -43.612 -40.1308 -36.9587 -34.0911 -31.5524 -29.3626 -27.5279 -26.0483 -24.9259 -24.1791 -23.8077 -49.5589 -45.9022 -42.5402 -39.4809 -36.7063 -34.2509 -32.1388 -30.3676 -28.943 -27.8502 -27.1263 -26.7746 -20.6264 -21.0171 -21.7832 -22.9498 -24.4822 -26.3834 -28.6539 -31.2852 -34.262 -37.5418 -41.1513 -45.07 -23.8077 -24.1791 -24.9259 -26.0483 -27.5279 -29.3626 -31.5524 -34.0911 -36.9587 -40.1308 -43.612 -47.3926 -26.7746 -27.1263 -27.8502 -28.943 -30.3676 -32.1388 -34.2509 -36.7063 -39.4809 -42.5402 -45.9022 -49.5589 -49.2678 -53.7295 -58.4451 -63.3778 -68.5039 -73.8302 -79.315 -84.9379 -90.6685 -96.4819 -102.286 -106.442 -51.4455 -55.7498 -60.2921 -65.0547 -70.011 -75.1437 -80.4344 -85.8584 -91.3907 -97.0013 -102.443 -105.077 -53.4781 -57.6321 -62.0129 -66.6202 -71.4144 -76.369 -81.4759 -86.7149 -92.0694 -97.4823 -102.888 -106.688 
</DataArray>
<DataArray Name="Stress_33" format="ascii" type="Float64">
0 0 0 0 0 0 0 0 0 0 0 0 0 0 0 0 0 0 0 0 0 0 0 0 0 0 0 0 0 0 0 0 0 0 0 0 0 0 0 0 0 0 0 0 0 0 0 0 0 0 0 0 0 0 0 0 0 0 0 0 0 0 0 0 0 0 0 0 0 0 0 0 0 0 0 0 0 0 0 0 0 0 0 0 0 0 0 0 0 0 0 0 0 0 0 0 0 0 0 0 0 0 0 0 0 0 0 0 0 0 0 0 0 0 0 0 0 0 0 0 0 0 0 0 0 0 0 0 0 0 0 0 0 0 0 0 0 0 0 0 0 0 0 0 0 0 0 0 0 0 0 0 0 0 0 0 0 0 0 0 0 0 0 0 0 0 0 0 0 0 0 0 0 0 0 0 0 0 0 0 0 0 0 0 0 0 0 0 0 0 0 0 0 0 0 0 0 0 0 0 0 0 0 0 0 0 0 0 0 0 0 0 0 0 0 0 0 0 0 0 0 0 0 0 0 0 0 0 0 0 0 0 0 0 0 0 0 0 0 0 0 0 0 0 0 0 0 0 0 0 0 0 0 0 0 0 0 0 0 0 0 0 0 0 0 0 0 0 0 0 0 0 0 0 0 0 0 0 0 0 0 0 0 0 0 0 0 0 
</DataArray>
</CellData>
<Points>
<DataArray NumberOfComponents="3" format="ascii" type="Float64">
0 0.09 0 -0.06364 0.06364 0 -0.005886 0.089807 0 -0.011747 0.08923 0 -0.017558 0.088271 0 -0.023294 0.086933 0 -0.02893 0.085224 0 -0.034442 0.083149 0 -0.039806 0.080719 0 -0.045 0.077942 0 -0.050001 0.074832 0 -0.054789 0.071402 0 -0.059341 0.067666 0 -0.065997 0.065997 0 0 0.093333 0 -0.006104 0.093133 0 -0.012182 0.092535 0 -0.018208 0.09154 0 -0.024156 0.090153 0 -0.030001 0.08838 0 -0.035717 0.086229 0 -0.04128 0.083708 0 -0.046667 0.080829 0 -0.051853 0.077604 0 -0.056818 0.074046 0 -0.061539 0.070172 0 -0.068354 0.068354 0 0 0.096667 0 -0.006322 0.09646 0 -0.012618 0.09584 0 -0.018859 0.094809 0 -0.025019 0.093373 0 -0.031072 0.091537 0 -0.036993 0.089308 0 -0.042755 0.086698 0 -0.048333 0.083716 0 -0.053705 0.080375 0 -0.058847 0.076691 0 -0.063737 0.072678 0 -0.070711 0.070711 0 0 0.1 0 -0.00654 0.099786 0 -0.013053 0.099144 0 -0.019509 0.098079 0 -0.025882 0.096593 0 -0.032144 0.094693 0 -0.038268 0.092388 0 -0.044229 0.089687 0 -0.05 0.086603 0 -0.055557 0.083147 0 -0.060876 0.079335 0 -0.065935 0.075184 0 -0.09 0 0 -0.067666 0.059341 0 -0.071402 0.054789 0 -0.074832 0.050001 0 -0.077942 0.045 0 -0.080719 0.039806 0 -0.083149 0.034442 0 -0.085224 0.02893 0 -0.086933 0.023294 0 -0.088271 0.017558 0 -0.08923 0.011747 0 -0.089807 0.005886 0 -0.093333 0 0 -0.070172 0.061539 0 -0.074046 0.056818 0 -0.077604 0.051853 0 -0.080829 0.046667 0 -0.083708 0.04128 0 -0.086229 0.035717 0 -0.08838 0.030001 0 -0.090153 0.024156 0 -0.09154 0.018208 0 -0.092535 0.012182 0 -0.093133 0.006104 0 -0.096667 0 0 -0.072678 0.063737 0 -0.076691 0.058847 0 -0.080375 0.053705 0 -0.083716 0.048333 0 -0.086698 0.042755 0 -0.089308 0.036993 0 -0.091537 0.031072 0 -0.093373 0.025019 0 -0.094809 0.018859 0 -0.09584 0.012618 0 -0.09646 0.006322 0 -0.1 0 0 -0.075184 0.065935 0 -0.079335 0.060876 0 -0.083147 0.055557 0 -0.086603 0.05 0 -0.089687 0.044229 0 -0.092388 0.038268 0 -0.094693 0.032144 0 -0.096593 0.025882 0 -0.098079 0.019509 0 -0.099144 0.013053 0 -0.099786 0.00654 0 -0.06364 -0.06364 0 -0.089807 -0.005886 0 -0.08923 -0.011747 0 -0.088271 -0.017558 0 -0.086933 -0.023294 0 -0.085224 -0.02893 0 -0.083149 -0.034442 0 -0.080719 -0.039806 0 -0.077942 -0.045 0 -0.074832 -0.050001 0 -0.071402 -0.054789 0 -0.067666 -0.059341 0 -0.065997 -0.065997 0 -0.093133 -0.006104 0 -0.092535 -0.012182 0 -0.09154 -0.018208 0 -0.090153 -0.024156 0 -0.08838 -0.030001 0 -0.086229 -0.035717 0 -0.083708 -0.04128 0 -0.080829 -0.046667 0 -0.077604 -0.051853 0 -0.074046 -0.056818 0 -0.070172 -0.061539 0 -0.068354 -0.068354 0 -0.09646 -0.006322 0 -0.09584 -0.012618 0 -0.094809 -0.018859 0 -0.093373 -0.025019 0 -0.091537 -0.031072 0 -0.089308 -0.036993 0 -0.086698 -0.042755 0 -0.083716 -0.048333 0 -0.080375 -0.053705 0 -0.076691 -0.058847 0 -0.072678 -0.063737 0 -0.070711 -0.070711 0 -0.099786 -0.00654 0 -0.099144 -0.013053 0 -0.098079 -0.019509 0 -0.096593 -0.025882 0 -0.094693 -0.032144 0 -0.092388 -0.038268 0 -0.089687 -0.044229 0 -0.086603 -0.05 0 -0.083147 -0.055557 0 -0.079335 -0.060876 0 -0.075184 -0.065935 0 0 -0.09 0 -0.059341 -0.067666 0 -0.054789 -0.071402 0 -0.050001 -0.074832 0 -0.045 -0.077942 0 -0.039806 -0.080719 0 -0.034442 -0.083149 0 -0.02893 -0.085224 0 -0.023294 -0.086933 0 -0.017558 -0.088271 0 -0.011747 -0.08923 0 -0.005886 -0.089807 0 0 -0.093333 0 -0.061539 -0.070172 0 -0.056818 -0.074046 0 -0.051853 -0.077604 0 -0.046667 -0.080829 0 -0.04128 -0.083708 0 -0.035717 -0.086229 0 -0.030001 -0.08838 0 -0.024156 -0.090153 0 -0.018208 -0.09154 0 -0.012182 -0.092535 0 -0.006104 -0.093133 0 0 -0.096667 0 -0.063737 -0.072678 0 -0.058847 -0.076691 0 -0.053705 -0.080375 0 -0.048333 -0.083716 0 -0.042755 -0.086698 0 -0.036993 -0.089308 0 -0.031072 -0.091537 0 -0.025019 -0.093373 0 -0.018859 -0.094809 0 -0.012618 -0.09584 0 -0.006322 -0.09646 0 0 -0.1 0 -0.065935 -0.075184 0 -0.060876 -0.079335 0 -0.055557 -0.083147 0 -0.05 -0.086603 0 -0.044229 -0.089687 0 -0.038268 -0.092388 0 -0.032144 -0.094693 0 -0.025882 -0.096593 0 -0.019509 -0.098079 0 -0.013053 -0.099144 0 -0.00654 -0.099786 0 0.06364 -0.06364 0 0.005886 -0.089807 0 0.011747 -0.08923 0 0.017558 -0.088271 0 0.023294 -0.086933 0 0.02893 -0.085224 0 0.034442 -0.083149 0 0.039806 -0.080719 0 0.045 -0.077942 0 0.050001 -0.074832 0 0.054789 -0.071402 0 0.059341 -0.067666 0 0.065997 -0.065997 0 0.006104 -0.093133 0 0.012182 -0.092535 0 0.018208 -0.09154 0 0.024156 -0.090153 0 0.030001 -0.08838 0 0.035717 -0.086229 0 0.04128 -0.083708 0 0.046667 -0.080829 0 0.051853 -0.077604 0 0.056818 -0.074046 0 0.061539 -0.070172 0 0.068354 -0.068354 0 0.006322 -0.09646 0 0.012618 -0.09584 0 0.018859 -0.094809 0 0.025019 -0.093373 0 0.031072 -0.091537 0 0.036993 -0.089308 0 0.042755 -0.086698 0 0.048333 -0.083716 0 0.053705 -0.080375 0 0.058847 -0.076691 0 0.063737 -0.072678 0 0.070711 -0.070711 0 0.00654 -0.099786 0 0.013053 -0.099144 0 0.019509 -0.098079 0 0.025882 -0.096593 0 0.032144 -0.094693 0 0.038268 -0.092388 0 0.044229 -0.089687 0 0.05 -0.086603 0 0.055557 -0.083147 0 0.060876 -0.079335 0 0.065935 -0.075184 0 0.09 0 0 0.067666 -0.059341 0 0.071402 -0.054789 0 0.074832 -0.050001 0 0.077942 -0.045 0 0.080719 -0.039806 0 0.083149 -0.034442 0 0.085224 -0.02893 0 0.086933 -0.023294 0 0.088271 -0.017558 0 0.08923 -0.011747 0 0.089807 -0.005886 0 0.093333 0 0 0.070172 -0.061539 0 0.074046 -0.056818 0 0.077604 -0.051853 0 0.080829 -0.046667 0 0.083708 -0.04128 0 0.086229 -0.035717 0 0.08838 -0.030001 0 0.090153 -0.024156 0 0.09154 -0.018208 0 0.092535 -0.012182 0 0.093133 -0.006104 0 0.096667 0 0 0.072678 -0.063737 0 0.076691 -0.058847 0 0.080375 -0.053705 0 0.083716 -0.048333 0 0.086698 -0.042755 0 0.089308 -0.036993 0 0.091537 -0.031072 0 0.093373 -0.025019 0 0.094809 -0.018859 0 0.09584 -0.012618 0 0.09646 -0.006322 0 0.1 0 0 0.075184 -0.065935 0 0.079335 -0.060876 0 0.083147 -0.055557 0 0.086603 -0.05 0 0.089687 -0.044229 0 0.092388 -0.038268 0 0.094693 -0.032144 0 0.096593 -0.025882 0 0.098079 -0.019509 0 0.099144 -0.013053 0 0.099786 -0.00654 0 0.06364 0.06364 0 0.089807 0.005886 0 0.08923 0.011747 0 0.088271 0.017558 0 0.086933 0.023294 0 0.085224 0.02893 0 0.083149 0.034442 0 0.080719 0.039806 0 0.077942 0.045 0 0.074832 0.050001 0 0.071402 0.054789 0 0.067666 0.059341 0 0.065997 0.065997 0 0.093133 0.006104 0 0.092535 0.012182 0 0.09154 0.018208 0 0.090153 0.024156 0 0.08838 0.030001 0 0.086229 0.035717 0 0.083708 0.04128 0 0.080829 0.046667 0 0.077604 0.051853 0 0.074046 0.056818 0 0.070172 0.061539 0 0.068354 0.068354 0 0.09646 0.006322 0 0.09584 0.012618 0 0.094809 0.018859 0 0.093373 0.025019 0 0.091537 0.031072 0 0.089308 0.036993 0 0.086698 0.042755 0 0.083716 0.048333 0 0.080375 0.053705 0 0.076691 0.058847 0 0.072678 0.063737 0 0.070711 0.070711 0 0.099786 0.00654 0 0.099144 0.013053 0 0.098079 0.019509 0 0.096593 0.025882 0 0.094693 0.032144 0 0.092388 0.038268 0 0.089687 0.044229 0 0.086603 0.05 0 0.083147 0.055557 0 0.079335 0.060876 0 0.075184 0.065935 0 0.059341 0.067666 0 0.054789 0.071402 0 0.050001 0.074832 0 0.045 0.077942 0 0.039806 0.080719 0 0.034442 0.083149 0 0.02893 0.085224 0 0.023294 0.086933 0 0.017558 0.088271 0 0.011747 0.08923 0 0.005886 0.089807 0 0.061539 0.070172 0 0.056818 0.074046 0 0.051853 0.077604 0 0.046667 0.080829 0 0.04128 0.083708 0 0.035717 0.086229 0 0.030001 0.08838 0 0.024156 0.090153 0 0.018208 0.09154 0 0.012182 0.092535 0 0.006104 0.093133 0 0.063737 0.072678 0 0.058847 0.076691 0 0.053705 0.080375 0 0.048333 0.083716 0 0.042755 0.086698 0 0.036993 0.089308 0 0.031072 0.091537 0 0.025019 0.093373 0 0.018859 0.094809 0 0.012618 0.09584 0 0.006322 0.09646 0 0.065935 0.075184 0 0.060876 0.079335 0 0.055557 0.083147 0 0.05 0.086603 0 0.044229 0.089687 0 0.038268 0.092388 0 0.032144 0.094693 0 0.025882 0.096593 0 0.019509 0.098079 0 0.013053 0.099144 0 0.00654 0.099786 0 
</DataArray>
</Points>
<Cells>
<DataArray Name="connectivity" format="ascii" type="Int64">