<?xml version="1.0"?>
<VTKFile byte_order="LittleEndian" type="UnstructuredGrid" version="0.1">
<UnstructuredGrid>
<Piece NumberOfCells="288" NumberOfPoints="384">
<PointData>
<DataArray Name="Warping_X" format="ascii" type="Float64">
-3.2415 -3.25907 -3.49294 -3.69282 -3.84124 -3.93896 -3.9879 -3.99051 -3.95019 -3.87074 -3.75678 -3.61326 -3.44548 -3.35668 -3.45223 -3.71221 -3.91679 -4.06584 -4.16059 -4.20302 -4.19593 -4.14284 -4.0481 -3.91653 -3.7535 -3.56489 -3.45419 -3.67209 -3.94032 -4.14918 -4.29851 -4.38979 -4.4251 -4.40745 -4.34083 -4.22974 -4.0795 -3.89598 -3.68535 -3.55159 -3.90088 -4.17709 -4.38976 -4.53918 -4.62645 -4.65396 -4.62507 -4.54396 -4.41567 -4.24575 -4.04055 -3.80683 -1.52151 -3.05981 -2.85361 -2.64615 -2.44314 -2.24988 -2.0714 -1.91217 -1.7762 -1.66682 -1.58675 -1.53792 -1.44064 -3.13515 -2.90666 -2.67738 -2.45347 -2.24063 -2.0443 -1.86934 -1.72003 -1.60001 -1.51217 -1.45864 -1.35083 -3.20925 -2.95732 -2.70515 -2.45927 -2.22594 -2.01091 -1.81941 -1.65614 -1.52498 -1.42899 -1.37049 -1.25219 -3.28209 -3.00561 -2.72945 -2.4606 -2.20579 -1.97117 -1.76246 -1.58457 -1.44171 -1.33727 -1.27358 -3.25907 -1.53792 -1.58675 -1.66682 -1.7762 -1.91217 -2.0714 -2.24988 -2.44314 -2.64615 -2.85361 -3.05981 -3.35668 -1.45864 -1.51217 -1.60001 -1.72003 -1.86934 -2.0443 -2.24063 -2.45347 -2.67738 -2.90666 -3.13515 -3.45419 -1.37049 -1.42899 -1.52498 -1.65614 -1.81941 -2.01091 -2.22594 -2.45927 -2.70515 -2.95732 -3.20925 -3.55159 -1.27358 -1.33727 -1.44171 -1.58457 -1.76246 -1.97117 -2.20579 -2.4606 -2.72945 -3.00561 -3.28209 -3.2415 -3.44548 -3.61326 -3.75678 -3.87074 -3.95019 -3.99051 -3.9879 -3.93896 -3.84124 -3.69282 -3.49294 -3.45223 -3.56489 -3.7535 -3.91653 -4.0481 -4.14284 -4.19593 -4.20302 -4.16059 -4.06584 -3.91679 -3.71221 -3.67209 -3.68535 -3.89598 -4.0795 -4.22974 -4.34083 -4.40745 -4.4251 -4.38979 -4.29851 -4.14918 -3.94032 -3.90088 -3.80683 -4.04055 -4.24575 -4.41567 -4.54396 -4.62507 -4.65396 -4.62645 -4.53918 -4.38976 -4.17709 3.22475 -2.92218 -2.55302 -2.13416 -1.66736 -1.15569 -0.603056 -0.014744 0.603413 1.24428 1.90037 2.56332 3.30813 -3.13253 -2.75696 -2.32692 -1.84405 -1.31151 -0.733786 -0.116293 0.534378 1.21061 1.90439 2.60658 3.39166 -3.35061 -2.96879 -2.52703 -2.02758 -1.47367 -0.869908 -0.222559 0.461425 1.17412 1.90644 2.64897 3.47499 -3.57765 -3.1891 -2.73548 -2.21874 -1.64265 -1.01238 -0.334174 0.384145 1.13415 1.90619 2.69007 8.04913 3.87567 4.50707 5.11025 5.67655 6.19791 6.66643 7.07552 7.41884 7.69151 7.88916 8.00895 8.44488 3.99935 4.67052 5.31234 5.91524 6.47058 6.97008 7.40617 7.77243 8.06326 8.27422 8.40202 8.84868 4.1242 4.83627 5.51748 6.15804 6.74823 7.27923 7.74326 8.1329 8.44233 8.66694 8.80307 9.26042 4.24995 5.00387 5.72571 6.40475 7.03065 7.5942 8.08657 8.50033 8.82898 9.06733 9.21199 3.22475 8.00895 7.88916 7.69151 7.41884 7.07552 6.66643 6.19791 5.67655 5.11025 4.50707 3.87567 3.30813 8.40202 8.27422 8.06326 7.77243 7.40617 6.97008 6.47058 5.91524 5.31234 4.67052 3.99935 3.39166 8.80307 8.66694 8.44233 8.1329 7.74326 7.27923 6.74823 6.15804 5.51748 4.83627 4.1242 3.47499 9.21199 9.06733 8.82898 8.50033 8.08657 7.5942 7.03065 6.40475 5.72571 5.00387 4.24995 2.56332 1.90037 1.24428 0.603413 -0.014744 -0.603056 -1.15569 -1.66736 -2.13416 -2.55302 -2.92218 2.60658 1.90439 1.21061 0.534378 -0.116293 -0.733786 -1.31151 -1.84405 -2.32692 -2.75696 -3.13253 2.64897 1.90644 1.17412 0.461425 -0.222559 -0.869908 -1.47367 -2.02758 -2.52703 -2.96879 -3.35061 2.69007 1.90619 1.13415 0.384145 -0.334174 -1.01238 -1.64265 -2.21874 -2.73548 -3.1891 -3.57765 
</DataArray>
<DataArray Name="Warping_Y" format="ascii" type="Float64">
3.633 -0.284267 3.26119 2.87693 2.48793 2.10062 1.72131 1.35583 1.00967 0.687627 0.394035 0.132388 -0.0943574 -0.39774 3.79049 3.38844 2.97446 2.55599 2.14005 1.73332 1.34217 0.972375 0.629154 0.317166 0.0401081 -0.198897 -0.520024 3.94801 3.51459 3.06963 2.62062 2.17502 1.73998 1.32219 0.928047 0.563106 0.232151 -0.060678 -0.312173 -0.651057 4.1056 3.6395 3.1626 2.68199 2.20561 1.74123 1.29612 0.876821 0.489425 0.139058 -0.169916 -0.434124 -8.90186e-11 -0.436014 -0.549192 -0.624164 -0.66216 -0.665106 -0.635613 -0.577042 -0.493253 -0.388692 -0.268155 -0.136807 -8.577e-11 -0.55506 -0.670432 -0.744353 -0.77808 -0.77374 -0.734263 -0.663213 -0.564847 -0.443956 -0.305761 -0.155837 -8.25189e-11 -0.682841 -0.80022 -0.872644 -0.901616 -0.889409 -0.839137 -0.754768 -0.640867 -0.502618 -0.345675 -0.176022 -7.92704e-11 -0.819296 -0.938419 -1.00906 -1.03275 -1.01197 -0.9502 -0.85165 -0.721266 -0.564614 -0.387817 -0.197345 0.284267 0.136807 0.268155 0.388692 0.493253 0.577042 0.635613 0.665106 0.66216 0.624164 0.549192 0.436014 0.39774 0.155837 0.305761 0.443956 0.564847 0.663213 0.734263 0.77374 0.77808 0.744353 0.670432 0.55506 0.520024 0.176022 0.345675 0.502618 0.640867 0.754768 0.839137 0.889409 0.901616 0.872644 0.80022 0.682841 0.651057 0.197345 0.387817 0.564614 0.721266 0.85165 0.9502 1.01197 1.03275 1.00906 0.938419 0.819296 -3.633 0.0943574 -0.132388 -0.394035 -0.687627 -1.00967 -1.35583 -1.72131 -2.10062 -2.48793 -2.87693 -3.26119 -3.79049 0.198897 -0.0401081 -0.317166 -0.629154 -0.972375 -1.34217 -1.73332 -2.14005 -2.55599 -2.97446 -3.38844 -3.94801 0.312173 0.060678 -0.232151 -0.563106 -0.928047 -1.32219 -1.73998 -2.17502 -2.62062 -3.06963 -3.51459 -4.1056 0.434124 0.169916 -0.139058 -0.489425 -0.876821 -1.29612 -1.74123 -2.20561 -2.68199 -3.1626 -3.6395 -5.8417 -4.00009 -4.35755 -4.69946 -5.01694 -5.30201 -5.54687 -5.74461 -5.88892 -5.97455 -5.99728 -5.95364 -6.21847 -4.18494 -4.57282 -4.94398 -5.2895 -5.60052 -5.86872 -6.08643 -6.24703 -6.34458 -6.37447 -6.33321 -6.60372 -4.37293 -4.79165 -5.19306 -5.56742 -5.90516 -6.1973 -6.4357 -6.61286 -6.72267 -6.76014 -6.72128 -6.99781 -4.56346 -5.01376 -5.4465 -5.85062 -6.2159 -6.53273 -6.7923 -6.98677 -7.10926 -7.1544 -7.11819 2.23095e-10 -5.66048 -5.41048 -5.093 -4.71111 -4.26854 -3.77028 -3.22228 -2.63136 -2.00519 -1.35202 -0.680605 1.90713e-10 -6.02922 -5.7659 -5.43011 -5.02491 -4.55427 -4.02377 -3.43968 -2.80939 -2.14117 -1.44386 -0.726885 1.58595e-10 -6.4063 -6.12944 -5.77484 -5.34575 -4.84667 -4.28312 -3.66209 -2.9916 -2.28039 -1.53794 -0.774233 1.26184e-10 -6.79209 -6.50136 -6.12765 -5.67421 -5.14577 -4.54848 -3.88982 -3.17811 -2.42278 -1.6341 -0.822692 5.8417 0.680605 1.35202 2.00519 2.63136 3.22228 3.77028 4.26854 4.71111 5.093 5.41048 5.66048 6.21847 0.726885 1.44386 2.14117 2.80939 3.43968 4.02377 4.55427 5.02491 5.43011 5.7659 6.02922 6.60372 0.774233 1.53794 2.28039 2.9916 3.66209 4.28312 4.84667 5.34575 5.77484 6.12944 6.4063 6.99781 0.822692 1.6341 2.42278 3.17811 3.88982 4.54848 5.14577 5.67421 6.12765 6.50136 6.79209 5.95364 5.99728 5.97455 5.88892 5.74461 5.54687 5.30201 5.01694 4.69946 4.35755 4.00009 6.33321 6.37447 6.34458 6.24703 6.08643 5.86872 5.60052 5.2895 4.94398 4.57282 4.18494 6.72128 6.76014 6.72267 6.61286 6.4357 6.1973 5.90516 5.56742 5.19306 4.79165 4.37293 7.11819 7.1544 7.10926 6.98677 6.7923 6.53273 6.2159 5.85062 5.4465 5.01376 4.56346 
</DataArray>
<DataArray Name="Warping_Z" format="ascii" type="Float64">
0 0 0 0 0 0 0 0 0 0 0 0 0 0 0 0 0 0 0 0 0 0 0 0 0 0 0 0 0 0 0 0 0 0 0 0 0 0 0 0 0 0 0 0 0 0 0 0 0 0 0 0 0 0 0 0 0 0 0 0 0 0 0 0 0 0 0 0 0 0 0 0 0 0 0 0 0 0 0 0 0 0 0 0 0 0 0 0 0 0 0 0 0 0 0 0 0 0 0 0 0 0 0 0 0 0 0 0 0 0 0 0 0 0 0 0 0 0 0 0 0 0 0 0 0 0 0 0 0 0 0 0 0 0 0 0 0 0 0 0 0 0 0 0 0 0 0 0 0 0 0 0 0 0 0 0 0 0 0 0 0 0 0 0 0 0 0 0 0 0 0 0 0 0 0 0 0 0 0 0 0 0 0 0 0 0 0 0 0 0 0 0 0 0 0 0 0 0 0 0 0 0 0 0 0 0 0 0 0 0 0 0 0 0 0 0 0 0 0 0 0 0 0 0 0 0 0 0 0 0 0 0 0 0 0 0 0 0 0 0 0 0 0 0 0 0 0 0 0 0 0 0 0 0 0 0 0 0 0 0 0 0 0 0 0 0 0 0 0 0 0 0 0 0 0 0 0 0 0 0 0 0 0 0 0 0 0 0 0 0 0 0 0 0 0 0 0 0 0 0 0 0 0 0 0 0 0 0 0 0 0 0 0 0 0 0 0 0 0 0 0 0 0 0 0 0 0 0 0 0 0 0 0 0 0 0 0 0 0 0 0 0 0 0 0 0 0 0 0 0 0 0 0 0 0 0 0 0 0 0 0 0 0 0 0 0 0 0 0 0 0 0 0 0 0 0 0 0 0 0 0 0 0 0 
</DataArray>
</PointData>
<CellData>
<DataArray Name="MaterialId" format="ascii" type="Float64">
1 1 1 1 1 1 1 1 1 1 1 1 1 1 1 1 1 1 1 1 1 1 1 1 1 1 1 1 1 1 1 1 1 1 1 1 1 1 1 1 1 1 1 1 1 1 1 1 1 1 1 1 1 1 1 1 1 1 1 1 1 1 1 1 1 1 1 1 1 1 1 1 1 1 1 1 1 1 1 1 1 1 1 1 1 1 1 1 1 1 1 1 1 1 1 1 1 1 1 1 1 1 1 1 1 1 1 1 1 1 1 1 1 1 1 1 1 1 1 1 1 1 1 1 1 1 1 1 1 1 1 1 1 1 1 1 1 1 1 1 1 1 1 1 2 2 2 2 2 2 2 2 2 2 2 2 2 2 2 2 2 2 2 2 2 2 2 2 2 2 2 2 2 2 2 2 2 2 2 2 2 2 2 2 2 2 2 2 2 2 2 2 2 2 2 2 2 2 2 2 2 2 2 2 2 2 2 2 2 2 2 2 2 2 2 2 2 2 2 2 2 2 2 2 2 2 2 2 2 2 2 2 2 2 2 2 2 2 2 2 2 2 2 2 2 2 2 2 2 2 2 2 2 2 2 2 2 2 2 2 2 2 2 2 2 2 2 2 2 2 2 2 2 2 2 2 2 2 2 2 2 2 2 2 2 2 2 2 
</DataArray>
<DataArray Name="FiberAngle" format="ascii" type="Float64">
0 0 0 0 0 0 0 0 0 0 0 0 0 0 0 0 0 0 0 0 0 0 0 0 0 0 0 0 0 0 0 0 0 0 0 0 0 0 0 0 0 0 0 0 0 0 0 0 0 0 0 0 0 0 0 0 0 0 0 0 0 0 0 0 0 0 0 0 0 0 0 0 0 0 0 0 0 0 0 0 0 0 0 0 0 0 0 0 0 0 0 0 0 0 0 0 0 0 0 0 0 0 0 0 0 0 0 0 0 0 0 0 0 0 0 0 0 0 0 0 0 0 0 0 0 0 0 0 0 0 0 0 0 0 0 0 0 0 0 0 0 0 0 0 0 0 0 0 0 0 0 0 0 0 0 0 0 0 0 0 0 0 0 0 0 0 0 0 0 0 0 0 0 0 0 0 0 0 0 0 0 0 0 0 0 0 0 0 0 0 0 0 0 0 0 0 0 0 0 0 0 0 0 0 0 0 0 0 0 0 0 0 0 0 0 0 0 0 0 0 0 0 0 0 0 0 0 0 0 0 0 0 0 0 0 0 0 0 0 0 0 0 0 0 0 0 0 0 0 0 0 0 0 0 0 0 0 0 0 0 0 0 0 0 0 0 0 0 0 0 0 0 0 0 0 0 0 0 0 0 0 0 0 0 0 0 0 0 
</DataArray>
<DataArray Name="Strain_11" format="ascii" type="Float64">
44.7222 40.0675 35.4293 30.8356 26.3141 21.8844 17.5654 13.3754 9.33313 5.4551 1.75814 -1.74177 44.664 39.8592 35.0511 30.31 25.6399 21.0604 16.5926 12.2554 8.06684 4.04536 0.207721 -3.42932 44.5709 39.6177 34.6699 29.775 24.9527 20.2228 15.605 11.1194 6.78533 2.62058 -1.35675 -5.12908 -5.03056 -8.09374 -10.9197 -13.496 -15.8128 -17.8608 -19.6312 -21.1173 -22.3134 -23.2147 -23.8171 -24.119 -6.8501 -10.04 -12.9851 -15.6735 -18.0934 -20.2332 -22.0855 -23.6413 -24.8938 -25.8383 -26.4698 -26.7865 -8.67997 -11.9935 -15.056 -17.8531 -20.3723 -22.6023 -24.5332 -26.1561 -27.4632 -28.4489 -29.1086 -29.4393 -24.119 -23.8171 -23.2147 -22.3134 -21.1173 -19.6312 -17.8608 -15.8128 -13.496 -10.9197 -8.09374 -5.03056 -26.7865 -26.4698 -25.8383 -24.8938 -23.6413 -22.0855 -20.2332 -18.0934 -15.6735 -12.9851 -10.04 -6.8501 -29.4393 -29.1086 -28.4489 -27.4632 -26.1561 -24.5332 -22.6023 -20.3723 -17.8531 -15.056 -11.9935 -8.67997 -1.74177 1.75814 5.4551 9.33313 13.3754 17.5654 21.8844 26.3141 30.8356 35.4293 40.0675 44.7222 -3.42932 0.207721 4.04536 8.06684 12.2554 16.5926 21.0604 25.6399 30.31 35.0511 39.8592 44.664 -5.12908 -1.35675 2.62058 6.78533 11.1194 15.605 20.2228 24.9527 29.775 34.6699 39.6177 44.5709 51.1689 55.6893 60.1168 64.4969 68.8073 73.037 77.1714 81.1966 85.0973 88.8594 92.467 95.9043 49.393 54.3003 59.105 63.8709 68.5625 73.1611 77.645 81.9952 86.193 90.22 94.0593 97.6943 47.8322 52.981 58.168 63.2866 68.3315 73.2717 78.0826 82.7395 87.2193 91.5018 95.5679 99.4001 99.156 102.205 105.038 107.638 109.992 112.084 113.904 115.438 116.678 117.615 118.243 118.559 101.11 104.291 107.226 109.902 112.308 114.434 116.273 117.816 119.058 119.994 120.619 120.933 102.983 106.304 109.352 112.116 114.589 116.765 118.638 120.204 121.46 122.403 123.033 123.349 118.559 118.243 117.615 116.678 115.438 113.904 112.084 109.992 107.638 105.038 102.205 99.156 120.933 120.619 119.994 119.058 117.816 116.273 114.434 112.308 109.902 107.226 104.291 101.11 123.349 123.033 122.403 121.46 120.204 118.638 116.765 114.589 112.116 109.352 106.304 102.983 95.9043 92.467 88.8594 85.0973 81.1966 77.1714 73.037 68.8073 64.4969 60.1168 55.6893 51.1689 97.6943 94.0593 90.22 86.193 81.9952 77.645 73.1611 68.5625 63.8709 59.105 54.3003 49.393 99.4001 95.5679 91.5018 87.2193 82.7395 78.0826 73.2717 68.3315 63.2866 58.168 52.981 47.8322 
</DataArray>
<DataArray Name="Strain_22" format="ascii" type="Float64">
44.8257 40.0951 35.4809 30.9044 26.3968 21.9741 17.6578 13.4635 9.41082 5.51655 1.79692 -1.73095 44.7395 39.8288 35.0429 30.3018 25.6277 21.0474 16.5777 12.2397 8.05144 4.02967 0.193084 -3.44275 44.6643 39.5663 34.6175 29.7048 24.8692 20.1303 15.5103 11.0278 6.70301 2.55404 -1.402 -5.14744 -5.05243 -8.15206 -11.0166 -13.6334 -15.9905 -18.0772 -19.884 -21.4023 -22.6257 -23.5483 -24.1655 -24.4748 -6.86193 -10.0495 -12.9929 -15.6785 -18.0955 -20.2338 -22.0832 -23.637 -24.8877 -25.8306 -26.4616 -26.7774 -8.66675 -11.9455 -14.97 -17.7283 -20.2087 -22.4007 -24.2964 -25.888 -27.1687 -28.1334 -28.7788 -29.1024 -24.4748 -24.1655 -23.5483 -22.6257 -21.4023 -19.884 -18.0772 -15.9905 -13.6334 -11.0166 -8.15206 -5.05243 -26.7774 -26.4616 -25.8306 -24.8877 -23.637 -22.0832 -20.2338 -18.0955 -15.6785 -12.9929 -10.0495 -6.86193 -29.1024 -28.7788 -28.1334 -27.1687 -25.888 -24.2964 -22.4007 -20.2087 -17.7283 -14.97 -11.9455 -8.66675 -1.73095 1.79692 5.51655 9.41082 13.4635 17.6578 21.9741 26.3968 30.9044 35.4809 40.0951 44.8257 -3.44275 0.193084 4.02967 8.05144 12.2397 16.5777 21.0474 25.6277 30.3018 35.0429 39.8288 44.7395 -5.14744 -1.402 2.55404 6.70301 11.0278 15.5103 20.1303 24.8692 29.7048 34.6175 39.5663 44.6643 49.2784 53.6727 58.4063 63.0367 67.6079 72.0842 76.4429 80.6636 84.7243 88.6065 92.2931 95.7678 49.66 54.3869 59.1478 63.8684 68.5134 73.069 77.5168 81.8362 86.01 90.0212 93.8513 97.4845 49.9761 55.0213 59.8645 64.6907 69.4352 74.0929 78.6463 83.0802 87.3777 91.5226 95.4984 99.2868 99.0173 102.029 104.793 107.3 109.544 111.518 113.217 114.637 115.777 116.633 117.205 117.49 100.905 104.097 107.047 109.742 112.169 114.318 116.179 117.743 119.003 119.953 120.59 120.908 102.87 106.232 109.355 112.222 114.817 117.124 119.13 120.822 122.189 123.223 123.916 124.263 117.49 117.205 116.633 115.777 114.637 113.217 111.518 109.544 107.3 104.793 102.029 99.0173 120.908 120.59 119.953 119.003 117.743 116.179 114.318 112.169 109.742 107.047 104.097 100.905 124.263 123.916 123.223 122.189 120.822 119.13 117.124 114.817 112.222 109.355 106.232 102.87 95.7678 92.2931 88.6065 84.7243 80.6636 76.4429 72.0842 67.6079 63.0367 58.4063 53.6727 49.2784 97.4845 93.8513 90.0212 86.01 81.8362 77.5168 73.069 68.5134 63.8684 59.1478 54.3869 49.66 99.2868 95.4984 91.5226 87.3777 83.0802 78.6463 74.0929 69.4352 64.6907 59.8645 55.0213 49.9761 
</DataArray>
<DataArray Name="Strain_12" format="ascii" type="Float64">
-0.0369017 0.016529 -0.027276 -0.0427785 -0.0630302 -0.0875218 -0.115111 -0.142894 -0.17155 -0.198777 -0.222818 -0.243651 -0.0206023 -0.0110315 -0.0168765 -0.0151325 -0.0127376 -0.010524 -0.00771961 -0.00546304 -0.00260537 0.000713144 0.00265427 0.00541429 0.0197678 -0.0258163 0.0165214 0.0307172 0.0505834 0.0753318 0.101849 0.130449 0.158273 0.184908 0.209595 0.230243 -0.259336 -0.269638 -0.273254 -0.269893 -0.259838 -0.242514 -0.218093 -0.188181 -0.15206 -0.112085 -0.0684621 -0.0231339 0.00752191 0.00887253 0.0105791 0.0106639 0.0116937 0.0112483 0.00980464 0.00950384 0.00757542 0.00551735 0.00343751 0.0011709 0.246281 0.256614 0.260874 0.258418 0.248928 0.232304 0.210125 0.180602 0.14622 0.108072 0.0659142 0.0222839 0.0231339 0.0684621 0.112085 0.15206 0.188181 0.218093 0.242514 0.259838 0.269893 0.273254 0.269638 0.259336 -0.0011709 -0.00343751 -0.00551735 -0.00757542 -0.00950384 -0.00980464 -0.0112483 -0.0116937 -0.0106639 -0.0105791 -0.00887253 -0.00752191 -0.0222839 -0.0659142 -0.108072 -0.14622 -0.180602 -0.210125 -0.232304 -0.248928 -0.258418 -0.260874 -0.256614 -0.246281 0.243651 0.222818 0.198777 0.17155 0.142894 0.115111 0.0875218 0.0630302 0.0427785 0.027276 -0.016529 0.0369017 -0.00541429 -0.00265427 -0.000713144 0.00260537 0.00546304 0.00771961 0.010524 0.0127376 0.0151325 0.0168765 0.0110315 0.0206023 -0.230243 -0.209595 -0.184908 -0.158273 -0.130449 -0.101849 -0.0753318 -0.0505834 -0.0307172 -0.0165214 0.0258163 -0.0197678 -0.222444 0.249981 0.382072 0.516163 0.584986 0.602039 0.571234 0.499321 0.396134 0.270033 0.130034 -0.0133166 -0.202378 -0.358025 -0.311028 -0.320723 -0.305169 -0.286224 -0.260287 -0.228969 -0.194659 -0.158606 -0.120891 -0.0850247 -0.251287 -0.573192 -0.757773 -0.871943 -0.930537 -0.928238 -0.873964 -0.775863 -0.642439 -0.484643 -0.313355 -0.13825 -0.151894 -0.276893 -0.38185 -0.46128 -0.510759 -0.528518 -0.514721 -0.469172 -0.397057 -0.300978 -0.187996 -0.0638287 -0.0510666 -0.0200606 0.00545276 0.0274005 0.0418697 0.0515668 0.0562373 0.053337 0.0473361 0.0370821 0.0234328 0.00800914 0.0303215 0.183634 0.313687 0.414455 0.482141 0.514551 0.509408 0.471684 0.402347 0.306511 0.192369 0.0654008 0.0638287 0.187996 0.300978 0.397057 0.469172 0.514721 0.528518 0.510759 0.46128 0.38185 0.276893 0.151894 -0.00800914 -0.0234328 -0.0370821 -0.0473361 -0.053337 -0.0562373 -0.0515668 -0.0418697 -0.0274005 -0.00545276 0.0200606 0.0510666 -0.0654008 -0.192369 -0.306511 -0.402347 -0.471684 -0.509408 -0.514551 -0.482141 -0.414455 -0.313687 -0.183634 -0.0303215 0.0133166 -0.130034 -0.270033 -0.396134 -0.499321 -0.571234 -0.602039 -0.584986 -0.516163 -0.382072 -0.249981 0.222444 0.0850247 0.120891 0.158606 0.194659 0.228969 0.260287 0.286224 0.305169 0.320723 0.311028 0.358025 0.202378 0.13825 0.313355 0.484643 0.642439 0.775863 0.873964 0.928238 0.930537 0.871943 0.757773 0.573192 0.251287 
</DataArray>
<DataArray Name="Strain_13" format="ascii" type="Float64">
0 0 0 0 0 0 0 0 0 0 0 0 0 0 0 0 0 0 0 0 0 0 0 0 0 0 0 0 0 0 0 0 0 0 0 0 0 0 0 0 0 0 0 0 0 0 0 0 0 0 0 0 0 0 0 0 0 0 0 0 0 0 0 0 0 0 0 0 0 0 0 0 0 0 0 0 0 0 0 0 0 0 0 0 0 0 0 0 0 0 0 0 0 0 0 0 0 0 0 0 0 0 0 0 0 0 0 0 0 0 0 0 0 0 0 0 0 0 0 0 0 0 0 0 0 0 0 0 0 0 0 0 0 0 0 0 0 0 0 0 0 0 0 0 0 0 0 0 0 0 0 0 0 0 0 0 0 0 0 0 0 0 0 0 0 0 0 0 0 0 0 0 0 0 0 0 0 0 0 0 0 0 0 0 0 0 0 0 0 0 0 0 0 0 0 0 0 0 0 0 0 0 0 0 0 0 0 0 0 0 0 0 0 0 0 0 0 0 0 0 0 0 0 0 0 0 0 0 0 0 0 0 0 0 0 0 0 0 0 0 0 0 0 0 0 0 0 0 0 0 0 0 0 0 0 0 0 0 0 0 0 0 0 0 0 0 0 0 0 0 0 0 0 0 0 0 0 0 0 0 0 0 0 0 0 0 0 0 
</DataArray>
<DataArray Name="Strain_23" format="ascii" type="Float64">
0 0 0 0 0 0 0 0 0 0 0 0 0 0 0 0 0 0 0 0 0 0 0 0 0 0 0 0 0 0 0 0 0 0 0 0 0 0 0 0 0 0 0 0 0 0 0 0 0 0 0 0 0 0 0 0 0 0 0 0 0 0 0 0 0 0 0 0 0 0 0 0 0 0 0 0 0 0 0 0 0 0 0 0 0 0 0 0 0 0 0 0 0 0 0 0 0 0 0 0 0 0 0 0 0 0 0 0 0 0 0 0 0 0 0 0 0 0 0 0 0 0 0 0 0 0 0 0 0 0 0 0 0 0 0 0 0 0 0 0 0 0 0 0 0 0 0 0 0 0 0 0 0 0 0 0 0 0 0 0 0 0 0 0 0 0 0 0 0 0 0 0 0 0 0 0 0 0 0 0 0 0 0 0 0 0 0 0 0 0 0 0 0 0 0 0 0 0 0 0 0 0 0 0 0 0 0 0 0 0 0 0 0 0 0 0 0 0 0 0 0 0 0 0 0 0 0 0 0 0 0 0 0 0 0 0 0 0 0 0 0 0 0 0 0 0 0 0 0 0 0 0 0 0 0 0 0 0 0 0 0 0 0 0 0 0 0 0 0 0 0 0 0 0 0 0 0 0 0 0 0 0 0 0 0 0 0 0 
</DataArray>
<DataArray Name="Strain_33" format="ascii" type="Float64">
0.0029975 0.00897975 0.0149237 0.020804 0.0265952 0.0322725 0.0378112 0.0431882 0.0483802 0.0533653 0.0581217 0.0626292 0.0031065 0.0093065 0.0154668 0.0215605 0.027562 0.0334457 0.0391862 0.0447587 0.0501395 0.0553058 0.0602353 0.0649067 0.0032155 0.00963325 0.0160097 0.0223173 0.0285293 0.0346192 0.0405612 0.0463293 0.0518988 0.0572462 0.0623487 0.0671843 0.0668688 0.0708215 0.074471 0.0778018 0.0807995 0.0834513 0.0857455 0.0876725 0.0892242 0.090394 0.0911762 0.0915682 0.0693003 0.0733967 0.077179 0.080631 0.0837377 0.0864858 0.0888635 0.0908607 0.0924688 0.093681 0.094492 0.0948983 0.0717317 0.075972 0.079887 0.0834602 0.086676 0.0895203 0.0919815 0.094049 0.0957135 0.096968 0.0978075 0.0982283 0.0915682 0.0911763 0.090394 0.0892242 0.0876725 0.0857455 0.0834513 0.0807995 0.0778018 0.074471 0.0708215 0.0668688 0.0948982 0.094492 0.093681 0.0924687 0.0908608 0.0888635 0.0864858 0.0837377 0.080631 0.077179 0.0733968 0.0693003 0.0982283 0.0978075 0.096968 0.0957135 0.094049 0.0919815 0.0895202 0.086676 0.0834602 0.079887 0.075972 0.0717317 0.0626292 0.0581217 0.0533652 0.0483802 0.0431882 0.0378112 0.0322725 0.0265952 0.020804 0.0149237 0.00897975 0.0029975 0.0649067 0.0602352 0.0553058 0.0501395 0.0447587 0.0391862 0.0334457 0.027562 0.0215605 0.0154668 0.0093065 0.0031065 0.0671843 0.0623487 0.0572462 0.0518988 0.0463293 0.0405613 0.0346192 0.0285292 0.0223173 0.0160097 0.00963325 0.0032155 -0.0029975 -0.00897975 -0.0149237 -0.020804 -0.0265952 -0.0322725 -0.0378112 -0.0431882 -0.0483802 -0.0533653 -0.0581217 -0.0626292 -0.0031065 -0.0093065 -0.0154668 -0.0215605 -0.027562 -0.0334457 -0.0391862 -0.0447587 -0.0501395 -0.0553058 -0.0602353 -0.0649067 -0.0032155 -0.00963325 -0.0160097 -0.0223173 -0.0285293 -0.0346192 -0.0405612 -0.0463293 -0.0518988 -0.0572462 -0.0623487 -0.0671843 -0.0668688 -0.0708215 -0.074471 -0.0778018 -0.0807995 -0.0834513 -0.0857455 -0.0876725 -0.0892242 -0.090394 -0.0911762 -0.0915682 -0.0693003 -0.0733967 -0.077179 -0.080631 -0.0837377 -0.0864858 -0.0888635 -0.0908607 -0.0924688 -0.093681 -0.094492 -0.0948983 -0.0717317 -0.075972 -0.079887 -0.0834602 -0.086676 -0.0895203 -0.0919815 -0.094049 -0.0957135 -0.096968 -0.0978075 -0.0982283 -0.0915682 -0.0911763 -0.090394 -0.0892242 -0.0876725 -0.0857455 -0.0834513 -0.0807995 -0.0778018 -0.074471 -0.0708215 -0.0668688 -0.0948982 -0.094492 -0.093681 -0.0924687 -0.0908608 -0.0888635 -0.0864858 -0.0837377 -0.080631 -0.077179 -0.0733968 -0.0693003 -0.0982283 -0.0978075 -0.096968 -0.0957135 -0.094049 -0.0919815 -0.0895202 -0.086676 -0.0834602 -0.079887 -0.075972 -0.0717317 -0.0626292 -0.0581217 -0.0533652 -0.0483802 -0.0431882 -0.0378112 -0.0322725 -0.0265952 -0.020804 -0.0149237 -0.00897975 -0.0029975 -0.0649067 -0.0602352 -0.0553058 -0.0501395 -0.0447587 -0.0391862 -0.0334457 -0.027562 -0.0215605 -0.0154668 -0.0093065 -0.0031065 -0.0671843 -0.0623487 -0.0572462 -0.0518988 -0.0463293 -0.0405613 -0.0346192 -0.0285292 -0.0223173 -0.0160097 -0.00963325 -0.0032155 
</DataArray>
<DataArray Name="Stress_11" format="ascii" type="Float64">
6214.38 5565.95 4922.59 4285.21 3657.77 3042.89 2443.25 1861.34 1299.77 760.842 246.878 -239.873 6205.52 5535.41 4868.41 4210.09 3561.52 2925.62 2305.21 1702.95 1121.36 562.956 30.1168 -474.865 6193.09 5501.3 4814.26 4134.08 3464.13 2807.12 2165.86 1543.1 941.562 363.711 -187.963 -711.016 -697.438 -1123.78 -1517.25 -1876.1 -2198.91 -2484.36 -2731.19 -2938.44 -3105.28 -3231.02 -3315.07 -3357.2 -949.807 -1392.67 -1801.56 -2174.77 -2510.71 -2807.78 -3064.9 -3280.88 -3454.73 -3585.84 -3673.51 -3717.46 -1203.19 -1662.32 -2086.51 -2473.81 -2822.54 -3131.12 -3398.26 -3622.73 -3803.5 -3939.78 -4030.99 -4076.71 -3357.2 -3315.07 -3231.02 -3105.28 -2938.44 -2731.19 -2484.36 -2198.91 -1876.1 -1517.25 -1123.78 -697.438 -3717.46 -3673.51 -3585.84 -3454.73 -3280.88 -3064.9 -2807.78 -2510.71 -2174.77 -1801.56 -1392.67 -949.807 -4076.71 -4030.99 -3939.78 -3803.5 -3622.73 -3398.26 -3131.12 -2822.54 -2473.81 -2086.51 -1662.32 -1203.19 -239.873 246.878 760.842 1299.77 1861.34 2443.25 3042.89 3657.77 4285.21 4922.59 5565.95 6214.38 -474.865 30.1168 562.956 1121.36 1702.95 2305.21 2925.62 3561.52 4210.09 4868.41 5535.41 6205.52 -711.016 -187.963 363.711 941.562 1543.1 2165.86 2807.12 3464.13 4134.08 4814.26 5501.3 6193.09 0.705419 0.767836 0.830163 0.891676 0.952252 1.01167 1.0697 1.12613 1.18074 1.23331 1.28362 1.33145 0.686747 0.754385 0.820979 0.887029 0.952044 1.01578 1.07794 1.13826 1.19648 1.25235 1.30563 1.3561 0.670283 0.741488 0.812557 0.882819 0.952035 1.01985 1.08593 1.14998 1.21167 1.27076 1.32697 1.38006 1.3766 1.41883 1.45798 1.49382 1.52619 1.55492 1.57985 1.60084 1.61778 1.63057 1.63913 1.64343 1.40354 1.44775 1.48853 1.52574 1.55922 1.5888 1.61439 1.63588 1.65317 1.66621 1.67492 1.67929 1.42981 1.47603 1.51856 1.55723 1.59191 1.62248 1.64886 1.67095 1.6887 1.70205 1.71098 1.71544 1.64343 1.63913 1.63057 1.61778 1.60084 1.57985 1.55492 1.52619 1.49382 1.45798 1.41883 1.3766 1.67929 1.67492 1.66621 1.65317 1.63588 1.61439 1.5888 1.55922 1.52574 1.48853 1.44775 1.40354 1.71544 1.71098 1.70205 1.6887 1.67095 1.64886 1.62248 1.59191 1.55723 1.51856 1.47603 1.42981 1.33145 1.28362 1.23331 1.18074 1.12613 1.0697 1.01167 0.952252 0.891676 0.830163 0.767836 0.705419 1.3561 1.30563 1.25235 1.19648 1.13826 1.07794 1.01578 0.952044 0.887029 0.820979 0.754385 0.686747 1.38006 1.32697 1.27076 1.21167 1.14998 1.08593 1.01985 0.952035 0.882819 0.812557 0.741488 0.670283 
</DataArray>
<DataArray Name="Stress_22" format="ascii" type="Float64">
6223 5568.25 4926.89 4290.95 3664.66 3050.36 2450.95 1868.69 1306.24 765.963 250.11 -238.971 6211.81 5532.89 4867.73 4209.41 3560.51 2924.54 2303.96 1701.64 1120.08 561.649 28.8971 -475.984 6200.87 5497.02 4809.89 4128.23 3457.17 2799.41 2157.97 1535.47 934.702 358.166 -191.734 -712.546 -699.261 -1128.64 -1525.32 -1887.55 -2213.72 -2502.39 -2752.26 -2962.19 -3131.3 -3258.82 -3344.11 -3386.85 -950.792 -1393.47 -1802.21 -2175.2 -2510.88 -2807.83 -3064.71 -3280.51 -3454.22 -3585.19 -3672.83 -3716.7 -1202.09 -1658.32 -2079.34 -2463.41 -2808.9 -3114.32 -3378.53 -3600.39 -3778.95 -3913.49 -4003.5 -4048.63 -3386.85 -3344.11 -3258.82 -3131.3 -2962.19 -2752.26 -2502.39 -2213.72 -1887.55 -1525.32 -1128.64 -699.261 -3716.7 -3672.83 -3585.19 -3454.22 -3280.51 -3064.71 -2807.83 -2510.88 -2175.2 -1802.21 -1393.47 -950.792 -4048.63 -4003.5 -3913.49 -3778.95 -3600.39 -3378.53 -3114.32 -2808.9 -2463.41 -2079.34 -1658.32 -1202.09 -238.971 250.11 765.963 1306.24 1868.69 2450.95 3050.36 3664.66 4290.95 4926.89 5568.25 6223 -475.984 28.8971 561.649 1120.08 1701.64 2303.96 2924.54 3560.51 4209.41 4867.73 5532.89 6211.81 -712.546 -191.734 358.166 934.702 1535.47 2157.97 2799.41 3457.17 4128.23 4809.89 5497.02 6200.87 0.689665 0.75103 0.815908 0.879508 0.942256 1.00373 1.06363 1.12169 1.17763 1.2312 1.28217 1.33031 0.688972 0.755107 0.821335 0.887009 0.951635 1.01501 1.07687 1.13693 1.19495 1.25069 1.3039 1.35435 0.688149 0.75849 0.826695 0.89452 0.961232 1.02669 1.09063 1.15282 1.213 1.27093 1.32639 1.37911 1.37544 1.41736 1.45593 1.49101 1.52246 1.5502 1.57412 1.59416 1.61027 1.62238 1.63047 1.63452 1.40183 1.44612 1.48705 1.52441 1.55806 1.58784 1.61361 1.63527 1.65271 1.66587 1.67467 1.67908 1.42887 1.47544 1.51859 1.55811 1.5938 1.62547 1.65296 1.6761 1.69478 1.70888 1.71833 1.72307 1.63452 1.63047 1.62238 1.61027 1.59416 1.57412 1.5502 1.52246 1.49101 1.45593 1.41736 1.37544 1.67908 1.67467 1.66587 1.65271 1.63527 1.61361 1.58784 1.55806 1.52441 1.48705 1.44612 1.40183 1.72307 1.71833 1.70888 1.69478 1.6761 1.65296 1.62547 1.5938 1.55811 1.51859 1.47544 1.42887 1.33031 1.28217 1.2312 1.17763 1.12169 1.06363 1.00373 0.942256 0.879508 0.815908 0.75103 0.689665 1.35435 1.3039 1.25069 1.19495 1.13693 1.07687 1.01501 0.951635 0.887009 0.821335 0.755107 0.688972 1.37911 1.32639 1.27093 1.213 1.15282 1.09063 1.02669 0.961232 0.89452 0.826695 0.75849 0.688149 
</DataArray>
<DataArray Name="Stress_12" format="ascii" type="Float64">
-1.53758 0.688713 -1.13651 -1.78245 -2.62628 -3.64677 -4.79631 -5.95397 -7.14797 -8.28243 -9.28414 -10.1522 -0.858435 -0.459648 -0.703193 -0.630527 -0.530738 -0.438504 -0.321653 -0.227628 -0.108558 0.0297146 0.110595 0.225597 0.823664 -1.07569 0.688399 1.27989 2.10766 3.13885 4.24374 5.43544 6.59477 7.70457 8.7332 9.59352 -10.8057 -11.235 -11.3857 -11.2456 -10.8267 -10.1048 -9.08729 -7.84096 -6.33589 -4.67023 -2.85261 -0.963921 0.313415 0.369692 0.440799 0.444333 0.48724 0.468682 0.40853 0.395996 0.315645 0.229892 0.143231 0.048788 10.2618 10.6923 10.8699 10.7675 10.3721 9.67942 8.7553 7.52515 6.09256 4.50302 2.74645 0.928502 0.963921 2.85261 4.67023 6.33589 7.84096 9.08729 10.1048 10.8267 11.2456 11.3857 11.235 10.8057 -0.048788 -0.143231 -0.229892 -0.315645 -0.395996 -0.40853 -0.468682 -0.48724 -0.444333 -0.440799 -0.369692 -0.313415 -0.928502 -2.74645 -4.50302 -6.09256 -7.52515 -8.7553 -9.67942 -10.3721 -10.7675 -10.8699 -10.6923 -10.2618 10.1522 9.28414 8.28243 7.14797 5.95397 4.79631 3.64677 2.62628 1.78245 1.13651 -0.688713 1.53758 -0.225597 -0.110595 -0.0297146 0.108558 0.227628 0.321653 0.438504 0.530738 0.630527 0.703193 0.459648 0.858435 -9.59352 -8.7332 -7.70457 -6.59477 -5.43544 -4.24374 -3.13885 -2.10766 -1.27989 -0.688399 1.07569 -0.823664 -0.000926858 0.0010416 0.00159198 0.0021507 0.00243746 0.00250852 0.00238016 0.00208052 0.00165057 0.00112515 0.000541811 -5.54861e-05 -0.000843247 -0.00149178 -0.00129596 -0.00133636 -0.00127155 -0.00119261 -0.00108454 -0.000954045 -0.000811086 -0.000660864 -0.000503715 -0.000354272 -0.00104704 -0.00238832 -0.00315741 -0.00363313 -0.00387727 -0.00386769 -0.00364154 -0.00323279 -0.00267685 -0.00201936 -0.00130566 -0.000576046 -0.000632897 -0.00115373 -0.00159106 -0.00192201 -0.00212818 -0.00220218 -0.00214469 -0.0019549 -0.00165442 -0.00125408 -0.000783324 -0.000265955 -0.000212779 -8.35864e-05 2.272e-05 0.00011417 0.000174458 0.000214864 0.000234324 0.000222239 0.000197235 0.00015451 9.76375e-05 3.33717e-05 0.000126341 0.000765147 0.00130704 0.00172691 0.00200894 0.00214398 0.00212255 0.00196537 0.00167646 0.00127714 0.000801545 0.000272506 0.000265955 0.000783324 0.00125408 0.00165442 0.0019549 0.00214469 0.00220218 0.00212818 0.00192201 0.00159106 0.00115373 0.000632897 -3.33717e-05 -9.76375e-05 -0.00015451 -0.000197235 -0.000222239 -0.000234324 -0.000214864 -0.000174458 -0.00011417 -2.272e-05 8.35864e-05 0.000212779 -0.000272506 -0.000801545 -0.00127714 -0.00167646 -0.00196537 -0.00212255 -0.00214398 -0.00200894 -0.00172691 -0.00130704 -0.000765147 -0.000126341 5.54861e-05 -0.000541811 -0.00112515 -0.00165057 -0.00208052 -0.00238016 -0.00250852 -0.00243746 -0.0021507 -0.00159198 -0.0010416 0.000926858 0.000354272 0.000503715 0.000660864 0.000811086 0.000954045 0.00108454 0.00119261 0.00127155 0.00133636 0.00129596 0.00149178 0.000843247 0.000576046 0.00130566 0.00201936 0.00267685 0.00323279 0.00364154 0.00386769 0.00387727 0.00363313 0.00315741 0.00238832 0.00104704 
</DataArray>
<DataArray Name="Stress_13" format="ascii" type="Float64">
0 0 0 0 0 0 0 0 0 0 0 0 0 0 0 0 0 0 0 0 0 0 0 0 0 0 0 0 0 0 0 0 0 0 0 0 0 0 0 0 0 0 0 0 0 0 0 0 0 0 0 0 0 0 0 0 0 0 0 0 0 0 0 0 0 0 0 0 0 0 0 0 0 0 0 0 0 0 0 0 0 0 0 0 0 0 0 0 0 0 0 0 0 0 0 0 0 0 0 0 0 0 0 0 0 0 0 0 0 0 0 0 0 0 0 0 0 0 0 0 0 0 0 0 0 0 0 0 0 0 0 0 0 0 0 0 0 0 0 0 0 0 0 0 0 0 0 0 0 0 0 0 0 0 0 0 0 0 0 0 0 0 0 0 0 0 0 0 0 0 0 0 0 0 0 0 0 0 0 0 0 0 0 0 0 0 0 0 0 0 0 0 0 0 0 0 0 0 0 0 0 0 0 0 0 0 0 0 0 0 0 0 0 0 0 0 0 0 0 0 0 0 0 0 0 0 0 0 0 0 0 0 0 0 0 0 0 0 0 0 0 0 0 0 0 0 0 0 0 0 0 0 0 0 0 0 0 0 0 0 0 0 0 0 0 0 0 0 0 0 0 0 0 0 0 0 0 0 0 0 0 0 0 0 0 0 0 0 
</DataArray>
<DataArray Name="Stress_23" format="ascii" type="Float64">