<?xml version="1.0"?>
<VTKFile byte_order="LittleEndian" type="UnstructuredGrid" version="0.1">
<UnstructuredGrid>
<Piece NumberOfCells="100" NumberOfPoints="121">
<PointData>
<DataArray Name="Warping_X" format="ascii" type="Float64">
-1.18405 4.51698e-15 -0.948735 -0.71179 -0.474601 -0.23731 4.55308e-15 4.4625e-15 4.44927e-15 4.47057e-15 4.49622e-15 -0.00117652 0.000247829 0.000478477 0.000612467 0.000511902 -0.237451 -0.47419 -0.711067 -0.947796 -0.75873 -0.56934 -0.379615 -0.189816 -0.568957 -0.426828 -0.284586 -0.142296 -0.379257 -0.284344 -0.189534 -0.0947658 -0.189486 -0.141835 -0.0945071 -0.0472467 1.18405 0.23731 0.474601 0.71179 0.948735 0.00117652 0.947796 0.711067 0.47419 0.237451 -0.000511902 -0.000612467 -0.000478477 -0.000247829 0.189816 0.379615 0.56934 0.75873 0.142296 0.284586 0.426828 0.568957 0.0947658 0.189534 0.284344 0.379257 0.0472467 0.0945071 0.141835 0.189486 -8.27405e-15 4.03977e-16 -2.98811e-15 -5.56538e-15 -7.36074e-15 1.1844 0.237444 0.474826 0.712054 0.949027 0.948142 0.711369 0.47431 0.236957 0.189791 0.142661 0.0952149 0.0476377 0.379486 0.28482 0.190018 0.0950494 0.569222 0.427158 0.284912 0.142497 0.759018 0.569622 0.379868 0.18997 -1.1844 -0.236957 -0.47431 -0.711369 -0.948142 -0.949027 -0.712054 -0.474826 -0.237444 -0.0476377 -0.0952149 -0.142661 -0.189791 -0.0950494 -0.190018 -0.28482 -0.379486 -0.142497 -0.284912 -0.427158 -0.569222 -0.18997 -0.379868 -0.569622 -0.759018 
</DataArray>
<DataArray Name="Warping_Y" format="ascii" type="Float64">
-0.00139079 0.593391 0.212741 0.379351 0.498291 0.56962 0.000747945 0.379864 0.213864 0.0953382 0.0242826 -0.593978 -0.0230205 -0.0943429 -0.213271 -0.379862 -0.569394 -0.498184 -0.379658 -0.21382 -3.72082e-05 0.166122 0.284863 0.356113 -0.165853 0.00031574 0.118951 0.190135 -0.284379 -0.11821 0.000425699 0.0716087 -0.355611 -0.189451 -0.070714 0.000533398 -0.00139079 0.56962 0.498291 0.379351 0.212741 -0.593978 -0.21382 -0.379658 -0.498184 -0.569394 -0.379862 -0.213271 -0.0943429 -0.0230205 0.356113 0.284863 0.166122 -3.72082e-05 0.190135 0.118951 0.00031574 -0.165853 0.0716087 0.000425699 -0.11821 -0.284379 0.000533398 -0.070714 -0.189451 -0.355611 0.593361 0.0242909 0.0952835 0.213755 0.379753 -0.00161528 0.569561 0.498163 0.379159 0.212521 -0.21412 -0.38008 -0.498781 -0.570129 -0.356285 -0.18973 -0.0708077 0.0005202 -0.28496 -0.118619 0.000221569 0.0715185 -0.166271 -2.88839e-05 0.11872 0.189994 -0.000329535 0.165868 0.284672 0.35598 -0.00161528 -0.570129 -0.498781 -0.38008 -0.21412 0.212521 0.379159 0.498163 0.569561 0.0005202 -0.0708077 -0.18973 -0.356285 0.0715185 0.000221569 -0.118619 -0.28496 0.189994 0.11872 -2.88839e-05 -0.166271 0.35598 0.284672 0.165868 -0.000329535 
</DataArray>
<DataArray Name="Warping_Z" format="ascii" type="Float64">
0 0 0 0 0 0 0 0 0 0 0 0 0 0 0 0 0 0 0 0 0 0 0 0 0 0 0 0 0 0 0 0 0 0 0 0 0 0 0 0 0 0 0 0 0 0 0 0 0 0 0 0 0 0 0 0 0 0 0 0 0 0 0 0 0 0 0 0 0 0 0 0 0 0 0 0 0 0 0 0 0 0 0 0 0 0 0 0 0 0 0 0 0 0 0 0 0 0 0 0 0 0 0 0 0 0 0 0 0 0 0 0 0 0 0 0 0 0 0 0 0 
</DataArray>
</PointData>
<CellData>
<DataArray Name="MaterialId" format="ascii" type="Float64">
1 1 1 1 1 1 1 1 1 1 1 1 1 1 1 1 1 1 1 1 1 1 1 1 1 1 1 1 1 1 1 1 1 1 1 1 1 1 1 1 1 1 1 1 1 1 1 1 1 1 2 2 2 2 2 2 2 2 2 2 2 2 2 2 2 2 2 2 2 2 2 2 2 2 2 2 2 2 2 2 2 2 2 2 2 2 2 2 2 2 2 2 2 2 2 2 2 2 2 2 
</DataArray>
<DataArray Name="FiberAngle" format="ascii" type="Float64">
0 0 0 0 0 0 0 0 0 0 0 0 0 0 0 0 0 0 0 0 0 0 0 0 0 0 0 0 0 0 0 0 0 0 0 0 0 0 0 0 0 0 0 0 0 0 0 0 0 0 0 0 0 0 0 0 0 0 0 0 0 0 0 0 0 0 0 0 0 0 0 0 0 0 0 0 0 0 0 0 0 0 0 0 0 0 0 0 0 0 0 0 0 0 0 0 0 0 0 0 
</DataArray>
<DataArray Name="Strain_11" format="ascii" type="Float64">
21.3127 21.3251 21.3288 21.3255 21.3136 16.6227 16.6143 16.6092 16.614 16.6223 11.8718 11.8771 11.8768 11.8768 11.8717 7.12406 7.12739 7.12913 7.12731 7.12401 2.37473 2.37597 2.37653 2.37595 2.37473 -2.37473 -2.37597 -2.37653 -2.37595 -2.37473 -7.12406 -7.12739 -7.12913 -7.12731 -7.12401 -11.8718 -11.8771 -11.8768 -11.8768 -11.8717 -16.6227 -16.6143 -16.6092 -16.614 -16.6223 -21.3127 -21.3251 -21.3288 -21.3255 -21.3136 21.3706 21.3524 21.3398 21.3284 21.3132 16.5664 16.5927 16.6037 16.613 16.6221 11.8392 11.8481 11.8616 11.871 11.8695 7.10631 7.11076 7.11708 7.12141 7.12162 2.36949 2.37059 2.37238 2.37364 2.37372 -2.36949 -2.37059 -2.37238 -2.37364 -2.37372 -7.10631 -7.11076 -7.11708 -7.12141 -7.12162 -11.8392 -11.8481 -11.8616 -11.871 -11.8695 -16.5664 -16.5927 -16.6037 -16.613 -16.6221 -21.3706 -21.3524 -21.3398 -21.3284 -21.3132 
</DataArray>
<DataArray Name="Strain_22" format="ascii" type="Float64">
21.3958 21.3794 21.3805 21.3794 21.3949 16.6384 16.6164 16.6169 16.6165 16.6376 11.884 11.8688 11.8635 11.8686 11.8832 7.12899 7.12171 7.11833 7.12152 7.12849 2.37606 2.37401 2.37297 2.37394 2.37588 -2.37606 -2.37401 -2.37297 -2.37394 -2.37588 -7.12899 -7.12171 -7.11833 -7.12152 -7.12849 -11.884 -11.8688 -11.8635 -11.8686 -11.8832 -16.6384 -16.6164 -16.6169 -16.6165 -16.6376 -21.3958 -21.3794 -21.3805 -21.3794 -21.3949 21.398 21.3833 21.3815 21.38 21.3963 16.6573 16.6448 16.6291 16.622 16.6418 11.8925 11.8882 11.8795 11.8777 11.8904 7.13252 7.13124 7.12854 7.12905 7.13526 2.37696 2.37678 2.3763 2.3767 2.37864 -2.37696 -2.37678 -2.3763 -2.3767 -2.37864 -7.13252 -7.13124 -7.12854 -7.12905 -7.13526 -11.8925 -11.8882 -11.8795 -11.8777 -11.8904 -16.6573 -16.6448 -16.6291 -16.622 -16.6418 -21.398 -21.3833 -21.3815 -21.38 -21.3963 
</DataArray>
<DataArray Name="Strain_12" format="ascii" type="Float64">
-0.0415729 -0.023904 -0.00043434 0.02283 0.0408089 0.0163165 -0.00516953 -0.000459249 0.00455751 -0.0159579 0.0128852 0.0124293 2.85398e-05 -0.0121693 -0.0127128 0.00776875 0.00994028 0.000370128 -0.0093036 -0.00765398 0.00460243 0.00670399 0.000494921 -0.00591454 -0.00448417 0.00460243 0.00670399 0.000494921 -0.00591454 -0.00448417 0.00776875 0.00994028 0.000370128 -0.0093036 -0.00765398 0.0128852 0.0124293 2.85398e-05 -0.0121693 -0.0127128 0.0163165 -0.00516953 -0.000459249 0.00455751 -0.0159579 -0.0415729 -0.023904 -0.00043434 0.02283 0.0408089 0.0974625 0.0341819 0.0209751 0.0315202 0.0431029 0.00442295 0.0319295 0.0274399 0.0189122 -0.0114399 -0.0251974 -0.0053728 0.00207687 -0.00750978 -0.0100838 -0.0365962 -0.0259245 -0.0205193 -0.0187553 -0.0103632 -0.0400919 -0.0348141 -0.0299726 -0.0241674 -0.011216 -0.0400919 -0.0348141 -0.0299726 -0.0241674 -0.011216 -0.0365962 -0.0259245 -0.0205193 -0.0187553 -0.0103632 -0.0251974 -0.0053728 0.00207687 -0.00750978 -0.0100838 0.00442295 0.0319295 0.0274399 0.0189122 -0.0114399 0.0974625 0.0341819 0.0209751 0.0315202 0.0431029 
</DataArray>
<DataArray Name="Strain_13" format="ascii" type="Float64">
0 0 0 0 0 0 0 0 0 0 0 0 0 0 0 0 0 0 0 0 0 0 0 0 0 0 0 0 0 0 0 0 0 0 0 0 0 0 0 0 0 0 0 0 0 0 0 0 0 0 0 0 0 0 0 0 0 0 0 0 0 0 0 0 0 0 0 0 0 0 0 0 0 0 0 0 0 0 0 0 0 0 0 0 0 0 0 0 0 0 0 0 0 0 0 0 0 0 0 0 
</DataArray>
<DataArray Name="Strain_23" format="ascii" type="Float64">
0 0 0 0 0 0 0 0 0 0 0 0 0 0 0 0 0 0 0 0 0 0 0 0 0 0 0 0 0 0 0 0 0 0 0 0 0 0 0 0 0 0 0 0 0 0 0 0 0 0 0 0 0 0 0 0 0 0 0 0 0 0 0 0 0 0 0 0 0 0 0 0 0 0 0 0 0 0 0 0 0 0 0 0 0 0 0 0 0 0 0 0 0 0 0 0 0 0 0 0 
</DataArray>
<DataArray Name="Strain_33" format="ascii" type="Float64">
-0.045 -0.045 -0.045 -0.045 -0.045 -0.035 -0.035 -0.035 -0.035 -0.035 -0.025 -0.025 -0.025 -0.025 -0.025 -0.015 -0.015 -0.015 -0.015 -0.015 -0.005 -0.005 -0.005 -0.005 -0.005 0.005 0.005 0.005 0.005 0.005 0.015 0.015 0.015 0.015 0.015 0.025 0.025 0.025 0.025 0.025 0.035 0.035 0.035 0.035 0.035 0.045 0.045 0.045 0.045 0.045 -0.045 -0.045 -0.045 -0.045 -0.045 -0.035 -0.035 -0.035 -0.035 -0.035 -0.025 -0.025 -0.025 -0.025 -0.025 -0.015 -0.015 -0.015 -0.015 -0.015 -0.005 -0.005 -0.005 -0.005 -0.005 0.005 0.005 0.005 0.005 0.005 0.015 0.015 0.015 0.015 0.015 0.025 0.025 0.025 0.025 0.025 0.035 0.035 0.035 0.035 0.035 0.045 0.045 0.045 0.045 0.045 
</DataArray>
<DataArray Name="Stress_11" format="ascii" type="Float64">
2961.16 2962.07 2962.52 2962.12 2961.24 2308.18 2306.63 2306.07 2306.59 2308.11 1648.51 1648.67 1648.49 1648.63 1648.47 989.173 989.341 989.441 989.326 989.154 329.722 329.802 329.835 329.798 329.717 -329.722 -329.802 -329.835 -329.798 -329.717 -989.173 -989.341 -989.441 -989.326 -989.154 -1648.51 -1648.67 -1648.49 -1648.63 -1648.47 -2308.18 -2306.63 -2306.07 -2306.59 -2308.11 -2961.16 -2962.07 -2962.52 -2962.12 -2961.24 29.6766 29.6522 29.6377 29.6247 29.6122 23.0244 23.0502 23.058 23.0664 23.082 16.4512 16.4599 16.4725 16.4824 16.4843 9.87299 9.87758 9.88385 9.8888 9.89076 3.29165 3.29281 3.29467 3.29618 3.29682 -3.29165 -3.29281 -3.29467 -3.29618 -3.29682 -9.87299 -9.87758 -9.88385 -9.8888 -9.89076 -16.4512 -16.4599 -16.4725 -16.4824 -16.4843 -23.0244 -23.0502 -23.058 -23.0664 -23.082 -29.6766 -29.6522 -29.6377 -29.6247 -29.6122 
</DataArray>
<DataArray Name="Stress_22" format="ascii" type="Float64">
2968.08 2966.6 2966.83 2966.61 2968.01 2309.49 2306.8 2306.72 2306.8 2309.38 1649.52 1647.98 1647.39 1647.95 1649.43 989.584 988.867 988.541 988.844 989.527 329.833 329.639 329.539 329.631 329.813 -329.833 -329.639 -329.539 -329.631 -329.813 -989.584 -988.867 -988.541 -988.844 -989.527 -1649.52 -1647.98 -1647.39 -1647.95 -1649.43 -2309.49 -2306.8 -2306.72 -2306.8 -2309.38 -2968.08 -2966.6 -2966.83 -2966.61 -2968.01 29.6994 29.678 29.6725 29.6676 29.6815 23.1002 23.0936 23.0792 23.0739 23.0984 16.4956 16.4933 16.4874 16.4879 16.5017 9.89483 9.89465 9.8934 9.89517 9.90213 3.29787 3.29798 3.29794 3.29873 3.30091 -3.29787 -3.29798 -3.29794 -3.29873 -3.30091 -9.89483 -9.89465 -9.8934 -9.89517 -9.90213 -16.4956 -16.4933 -16.4874 -16.4879 -16.5017 -23.1002 -23.0936 -23.0792 -23.0739 -23.0984 -29.6994 -29.678 -29.6725 -29.6676 -29.6815 
</DataArray>
<DataArray Name="Stress_12" format="ascii" type="Float64">
-1.73222 -0.996009 -0.0180976 0.951256 1.70038 0.67986 -0.215399 -0.0191355 0.189898 -0.664918 0.536888 0.517891 0.00118917 -0.507059 -0.529706 0.3237 0.414182 0.0154221 -0.387653 -0.318918 0.191769 0.279335 0.0206219 -0.246441 -0.186842 0.191769 0.279335 0.0206219 -0.246441 -0.186842 0.3237 0.414182 0.0154221 -0.387653 -0.318918 0.536888 0.517891 0.00118917 -0.507059 -0.529706 0.67986 -0.215399 -0.0191355 0.189898 -0.664918 -1.73222 -0.996009 -0.0180976 0.951256 1.70038 0.0406097 0.0142426 0.00873969 0.0131335 0.0179597 0.00184291 0.0133041 0.0114334 0.00788017 -0.00476665 -0.010499 -0.00223869 0.000865368 -0.0031291 -0.00420163 -0.0152485 -0.0108019 -0.00854977 -0.00781477 -0.00431803 -0.0167051 -0.014506 -0.0124887 -0.0100698 -0.00467337 -0.0167051 -0.014506 -0.0124887 -0.0100698 -0.00467337 -0.0152485 -0.0108019 -0.00854977 -0.00781477 -0.00431803 -0.010499 -0.00223869 0.000865368 -0.0031291 -0.00420163 0.00184291 0.0133041 0.0114334 0.00788017 -0.00476665 0.0406097 0.0142426 0.00873969 0.0131335 0.0179597 
</DataArray>
<DataArray Name="Stress_13" format="ascii" type="Float64">
0 0 0 0 0 0 0 0 0 0 0 0 0 0 0 0 0 0 0 0 0 0 0 0 0 0 0 0 0 0 0 0 0 0 0 0 0 0 0 0 0 0 0 0 0 0 0 0 0 0 0 0 0 0 0 0 0 0 0 0 0 0 0 0 0 0 0 0 0 0 0 0 0 0 0 0 0 0 0 0 0 0 0 0 0 0 0 0 0 0 0 0 0 0 0 0 0 0 0 0 
</DataArray>
<DataArray Name="Stress_23" format="ascii" type="Float64">
0 0 0 0 0 0 0 0 0 0 0 0 0 0 0 0 0 0 0 0 0 0 0 0 0 0 0 0 0 0 0 0 0 0 0 0 0 0 0 0 0 0 0 0 0 0 0 0 0 0 0 0 0 0 0 0 0 0 0 0 0 0 0 0 0 0 0 0 0 0 0 0 0 0 0 0 0 0 0 0 0 0 0 0 0 0 0 0 0 0 0 0 0 0 0 0 0 0 0 0 
</DataArray>
<DataArray Name="Stress_33" format="ascii" type="Float64">
1181.35 1181.24 1181.37 1181.25 1181.35 920.033 919.186 919.058 919.179 919.997 657.107 656.829 656.675 656.817 657.081 394.252 394.142 394.096 394.134 394.236 131.411 131.388 131.375 131.386 131.406 -131.411 -131.388 -131.375 -131.386 -131.406 -394.252 -394.142 -394.096 -394.134 -394.236 -657.107 -656.829 -656.675 -656.817 -657.081 -920.033 -919.186 -919.058 -919.179 -919.997 -1181.35 -1181.24 -1181.37 -1181.25 -1181.35 11.8302 11.821 11.817 11.8135 11.8137 9.18991 9.19375 9.19245 9.19306 9.20108 6.56437 6.56564 6.56697 6.56906 6.57221 3.93856 3.93944 3.94045 3.94179 3.94358 1.3129 1.31316 1.31352 1.31398 1.31454 -1.3129 -1.31316 -1.31352 -1.31398 -1.31454 -3.93856 -3.93944 -3.94045 -3.94179 -3.94358 -6.56437 -6.56564 -6.56697 -6.56906 -6.57221 -9.18991 -9.19375 -9.19245 -9.19306 -9.20108 -11.8302 -11.821 -11.817 -11.8135 -11.8137 
</DataArray>
</CellData>
<Points>
<DataArray NumberOfComponents="3" format="ascii" type="Float64">
-0.05 -0.05 0 -0.05 0 0 -0.05 -0.04 0 -0.05 -0.03 0 -0.05 -0.02 0 -0.05 -0.01 0 0 0 0 -0.04 0 0 -0.03 0 0 -0.02 0 0 -0.01 0 0 0 -0.05 0 0 -0.01 0 0 -0.02 0 0 -0.03 0 0 -0.04 0 -0.01 -0.05 0 -0.02 -0.05 0 -0.03 -0.05 0 -0.04 -0.05 0 -0.04 -0.04 0 -0.04 -0.03 0 -0.04 -0.02 0 -0.04 -0.01 0 -0.03 -0.04 0 -0.03 -0.03 0 -0.03 -0.02 0 -0.03 -0.01 0 -0.02 -0.04 0 -0.02 -0.03 0 -0.02 -0.02 0 -0.02 -0.01 0 -0.01 -0.04 0 -0.01 -0.03 0 -0.01 -0.02 0 -0.01 -0.01 0 -0.05 0.05 0 -0.05 0.01 0 -0.05 0.02 0 -0.05 0.03 0 -0.05 0.04 0 0 0.05 0 -0.04 0.05 0 -0.03 0.05 0 -0.02 0.05 0 -0.01 0.05 0 0 0.04 0 0 0.03 0 0 0.02 0 0 0.01 0 -0.04 0.01 0 -0.04 0.02 0 -0.04 0.03 0 -0.04 0.04 0 -0.03 0.01 0 -0.03 0.02 0 -0.03 0.03 0 -0.03 0.04 0 -0.02 0.01 0 -0.02 0.02 0 -0.02 0.03 0 -0.02 0.04 0 -0.01 0.01 0 -0.01 0.02 0 -0.01 0.03 0 -0.01 0.04 0 0.05 0 0 0.01 0 0 0.02 0 0 0.03 0 0 0.04 0 0 0.05 -0.05 0 0.05 -0.01 0 0.05 -0.02 0 0.05 -0.03 0 0.05 -0.04 0 0.04 -0.05 0 0.03 -0.05 0 0.02 -0.05 0 0.01 -0.05 0 0.01 -0.04 0 0.01 -0.03 0 0.01 -0.02 0 0.01 -0.01 0 0.02 -0.04 0 0.02 -0.03 0 0.02 -0.02 0 0.02 -0.01 0 0.03 -0.04 0 0.03 -0.03 0 0.03 -0.02 0 0.03 -0.01 0 0.04 -0.04 0 0.04 -0.03 0 0.04 -0.02 0 0.04 -0.01 0 0.05 0.05 0 0.01 0.05 0 0.02 0.05 0 0.03 0.05 0 0.04 0.05 0 0.05 0.04 0 0.05 0.03 0 0.05 0.02 0 0.05 0.01 0 0.01 0.01 0 0.01 0.02 0 0.01 0.03 0 0.01 0.04 0 0.02 0.01 0 0.02 0.02 0 0.02 0.03 0 0.02 0.04 0 0.03 0.01 0 0.03 0.02 0 0.03 0.03 0 0.03 0.04 0 0.04 0.01 0 0.04 0.02 0 0.04 0.03 0 0.04 0.04 0 
</DataArray>
</Points>
<Cells>
<DataArray Name="connectivity" format="ascii" type="Int64">
0 19 20 2 19 18 24 20 18 17 28 24 17 16 32 28 16 11 15 32 2 20 21 3 20 24 25 21 24 28 29 25 28 32 33 29 32 15 14 33 3 21 22 4 21 25 26 22 25 29 30 26 29 33 34 30 33 14 13 34 4 22 23 5 22 26 27 23 26 30 31 27 30 34 35 31 34 13 12 35 5 23 7 1 23 27 8 7 27 31 9 8 31 35 10 9 35 12 6 10 1 7 50 37 7 8 54 50 8 9 58 54 9 10 62 58 10 6 49 62 37 50 51 38 50 54 55 51 54 58 59 55 58 62 63 59 62 49 48 63 38 51 52 39 51 55 56 52 55 59 60 56 59 63 64 60 63 48 47 64 39 52 53 40 52 56 57 53 56 60 61 57 60 64 65 61 64 47 46 65 40 53 42 36 53 57 43 42 57 61 44 43 61 65 45 44 65 46 41 45 11 79 80 15 79 78 84 80 78 77 88 84 77 76 92 88 76 71 75 92 15 80 81 14 80 84 85 81 84 88 89 85 88 92 93 89 92 75 74 93 14 81 82 13 81 85 86 82 85 89 90 86 89 93 94 90 93 74 73 94 13 82 83 12 82 86 87 83 86 90 91 87 90 94 95 91 94 73 72 95 12 83 67 6 83 87 68 67 87 91 69 68 91 95 70 69 95 72 66 70 6 67 105 49 67 68 109 105 68 69 113 109 69 70 117 113 70 66 104 117 49 105 106 48 105 109 110 106 109 113 114 110 113 117 118 114 117 104 103 118 48 106 107 47 106 110 111 107 110 114 115 111 114 118 119 115 118 103 102 119 47 107 108 46 107 111 112 108 111 115 116 112 115 119 120 116 119 102 101 120 46 108 97 41 108 112 98 97 112 116 99 98 116 120 100 99 120 101 96 100 
</DataArray>
<DataArray Name="offsets" format="ascii" type="Int64">
4 8 12 16 20 24 28 32 36 40 44 48 52 56 60 64 68 72 76 80 84 88 92 96 100 104 108 112 116 120 124 128 132 136 140 144 148 152 156 160 164 168 172 176 180 184 188 192 196 200 204 208 212 216 220 224 228 232 236 240 244 248 252 256 260 264 268 272 276 280 284 288 292 296 300 304 308 312 316 320 324 328 332 336 340 344 348 352 356 360 364 368 372 376 380 384 388 392 396 400 
</DataArray>
<DataArray Name="types" format="ascii" type="Int8">
9 9 9 9 9 9 9 9 9 9 9 9 9 9 9 9 9 9 9 9 9 9 9 9 9 9 9 9 9 9 9 9 9 9 9 9 9 9 9 9 9 9 9 9 9 9 9 9 9 9 9 9 9 9 9 9 9 9 9 9 9 9 9 9 9 9 9 9 9 9 9 9 9 9 9 9 9 9 9 9 9 9 9 9 9 9 9 9 9 9 9 9 9 9 9 9 9 9 9 9 
</DataArray>
</Cells>
</Piece>
</UnstructuredGrid>
</VTKFile>
