<?xml version="1.0"?>
<VTKFile byte_order="LittleEndian" type="UnstructuredGrid" version="0.1">
<UnstructuredGrid>
<Piece NumberOfCells="100" NumberOfPoints="121">
<PointData>
<DataArray Name="Warping_X" format="ascii" type="Float64">
0.0705591 0.0188847 0.0519943 0.0375093 0.0271618 0.0209539 0.000111557 0.0234587 0.0238684 0.0201137 0.0121947 0.0517935 0.00218069 0.00838854 0.0187363 0.0332225 0.0638969 0.0718346 0.0755879 0.0751566 0.0565624 0.0420816 0.0317354 0.0255279 0.0569599 0.0424861 0.0321441 0.0259375 0.0532057 0.0387313 0.0283894 0.0221828 0.0452995 0.0308176 0.0204712 0.0142638 0.0705591 0.0209539 0.0271618 0.0375093 0.0519943 0.0517935 0.0751566 0.0755879 0.0718346 0.0638969 0.0332225 0.0187363 0.00838854 0.00218069 0.0255279 0.0317354 0.0420816 0.0565624 0.0259375 0.0321441 0.0424861 0.0569599 0.0221828 0.0283894 0.0387313 0.0532057 0.0142638 0.0204712 0.0308176 0.0452995 -0.12274 -0.0161555 -0.0365722 -0.0611399 -0.0898615 -0.0708897 -0.120664 -0.114434 -0.104048 -0.0895108 -0.0379861 -0.00924233 0.0153222 0.0356904 0.0169721 0.00247902 -0.00787408 -0.0140851 -0.00339965 -0.017923 -0.028284 -0.0345002 -0.0279404 -0.0424686 -0.0528431 -0.0590659 -0.0566396 -0.0711741 -0.0815578 -0.087786 -0.0708897 0.0356904 0.0153222 -0.00924233 -0.0379861 -0.0895108 -0.104048 -0.114434 -0.120664 -0.0140851 -0.00787408 0.00247902 0.0169721 -0.0345002 -0.028284 -0.017923 -0.00339965 -0.0590659 -0.0528431 -0.0424686 -0.0279404 -0.087786 -0.0815578 -0.0711741 -0.0566396 
</DataArray>
<DataArray Name="Warping_Y" format="ascii" type="Float64">
-0.0328751 2.77391e-16 -0.0263407 -0.019767 -0.0131798 -0.00659006 -5.0194e-16 1.18744e-16 -3.79329e-17 -1.87124e-16 -3.3898e-16 0.0704299 0.0141001 0.0282001 0.0422979 0.0563831 0.0498529 0.0291372 0.00840909 -0.0123051 -0.0098197 -0.00735721 -0.00490378 -0.00245186 0.00673102 0.00505463 0.00337142 0.00168589 0.0233059 0.0174733 0.0116475 0.00582364 0.0398583 0.0298865 0.0199233 0.00996165 0.0328751 0.00659006 0.0131798 0.019767 0.0263407 -0.0704299 0.0123051 -0.00840909 -0.0291372 -0.0498529 -0.0563831 -0.0422979 -0.0282001 -0.0141001 0.00245186 0.00490378 0.00735721 0.0098197 -0.00168589 -0.00337142 -0.00505463 -0.00673102 -0.00582364 -0.0116475 -0.0174733 -0.0233059 -0.00996165 -0.0199233 -0.0298865 -0.0398583 5.87249e-16 -4.62771e-16 -2.51085e-16 6.23733e-17 3.77453e-16 0.17443 0.0349012 0.069804 0.104705 0.13959 0.153805 0.133032 0.112217 0.0913707 0.0730551 0.0547893 0.0365258 0.0182625 0.0897513 0.0672948 0.0448565 0.0224265 0.106408 0.0797864 0.0531815 0.0265885 0.123016 0.09225 0.0614957 0.0307466 -0.17443 -0.0913707 -0.112217 -0.133032 -0.153805 -0.13959 -0.104705 -0.069804 -0.0349012 -0.0182625 -0.0365258 -0.0547893 -0.0730551 -0.0224265 -0.0448565 -0.0672948 -0.0897513 -0.0265885 -0.0531815 -0.0797864 -0.106408 -0.0307466 -0.0614957 -0.09225 -0.123016 
</DataArray>
<DataArray Name="Warping_Z" format="ascii" type="Float64">
0 0 0 0 0 0 0 0 0 0 0 0 0 0 0 0 0 0 0 0 0 0 0 0 0 0 0 0 0 0 0 0 0 0 0 0 0 0 0 0 0 0 0 0 0 0 0 0 0 0 0 0 0 0 0 0 0 0 0 0 0 0 0 0 0 0 0 0 0 0 0 0 0 0 0 0 0 0 0 0 0 0 0 0 0 0 0 0 0 0 0 0 0 0 0 0 0 0 0 0 0 0 0 0 0 0 0 0 0 0 0 0 0 0 0 0 0 0 0 0 0 
</DataArray>
</PointData>
<CellData>
<DataArray Name="MaterialId" format="ascii" type="Float64">
1 1 1 1 1 1 1 1 1 1 1 1 1 1 1 1 1 1 1 1 1 1 1 1 1 1 1 1 1 1 1 1 1 1 1 1 1 1 1 1 1 1 1 1 1 1 1 1 1 1 2 2 2 2 2 2 2 2 2 2 2 2 2 2 2 2 2 2 2 2 2 2 2 2 2 2 2 2 2 2 2 2 2 2 2 2 2 2 2 2 2 2 2 2 2 2 2 2 2 2 
</DataArray>
<DataArray Name="FiberAngle" format="ascii" type="Float64">
0 0 0 0 0 0 0 0 0 0 0 0 0 0 0 0 0 0 0 0 0 0 0 0 0 0 0 0 0 0 0 0 0 0 0 0 0 0 0 0 0 0 0 0 0 0 0 0 0 0 0 0 0 0 0 0 0 0 0 0 0 0 0 0 0 0 0 0 0 0 0 0 0 0 0 0 0 0 0 0 0 0 0 0 0 0 0 0 0 0 0 0 0 0 0 0 0 0 0 0 
</DataArray>
<DataArray Name="Strain_11" format="ascii" type="Float64">
0.458283 0.0414429 -0.375375 -0.792194 -1.20902 0.457023 0.0400973 -0.375445 -0.790999 -1.20791 0.457298 0.0406591 -0.375474 -0.791596 -1.2082 0.457381 0.0409188 -0.375474 -0.791855 -1.20829 0.457401 0.0409679 -0.375471 -0.7919 -1.20831 0.457401 0.0409679 -0.375471 -0.7919 -1.20831 0.457381 0.0409188 -0.375474 -0.791855 -1.20829 0.457298 0.0406591 -0.375474 -0.791596 -1.2082 0.457023 0.0400973 -0.375445 -0.790999 -1.20791 0.458283 0.0414429 -0.375375 -0.792194 -1.20902 -1.61768 -2.037 -2.45526 -2.87215 -3.28874 -1.62538 -2.03869 -2.45432 -2.87023 -3.28726 -1.62599 -2.0406 -2.45523 -2.87101 -3.28752 -1.62642 -2.04125 -2.45624 -2.87174 -3.28773 -1.62664 -2.04159 -2.45667 -2.87209 -3.28785 -1.62664 -2.04159 -2.45667 -2.87209 -3.28785 -1.62642 -2.04125 -2.45624 -2.87174 -3.28773 -1.62599 -2.0406 -2.45523 -2.87101 -3.28752 -1.62538 -2.03869 -2.45432 -2.87023 -3.28726 -1.61768 -2.037 -2.45526 -2.87215 -3.28874 
</DataArray>
<DataArray Name="Strain_22" format="ascii" type="Float64">
0.450989 0.0403662 -0.375467 -0.791291 -1.20207 0.45181 0.039305 -0.375446 -0.790221 -1.20285 0.452029 0.0385107 -0.375454 -0.78945 -1.20305 0.452084 0.0383195 -0.375469 -0.789276 -1.20308 0.452096 0.0382985 -0.375477 -0.789264 -1.20309 0.452096 0.0382985 -0.375477 -0.789264 -1.20309 0.452084 0.0383195 -0.375469 -0.789276 -1.20308 0.452029 0.0385107 -0.375454 -0.78945 -1.20305 0.45181 0.039305 -0.375446 -0.790221 -1.20285 0.450989 0.0403662 -0.375467 -0.791291 -1.20207 -1.61812 -2.03908 -2.4545 -2.87064 -3.28146 -1.61755 -2.03612 -2.45388 -2.86938 -3.28255 -1.61806 -2.03509 -2.45216 -2.86796 -3.28277 -1.61816 -2.03466 -2.45115 -2.86711 -3.28259 -1.61813 -2.03445 -2.45075 -2.86675 -3.28239 -1.61813 -2.03445 -2.45075 -2.86675 -3.28239 -1.61816 -2.03466 -2.45115 -2.86711 -3.28259 -1.61806 -2.03509 -2.45216 -2.86796 -3.28277 -1.61755 -2.03612 -2.45388 -2.86938 -3.28255 -1.61812 -2.03908 -2.4545 -2.87064 -3.28146 
</DataArray>
<DataArray Name="Strain_12" format="ascii" type="Float64">
-0.00340285 0.00213186 0.00229823 0.00208968 -0.0033324 -0.00174866 0.000398164 0.00226931 0.000463173 -0.00159796 -0.000396081 -5.56495e-05 0.000544359 3.24123e-05 -0.000291212 -5.92358e-05 -6.19154e-05 2.78963e-05 -9.65194e-06 -2.56414e-06 -5.62637e-06 -2.15621e-05 -1.54666e-05 -5.40322e-06 1.19403e-05 5.62637e-06 2.15621e-05 1.54666e-05 5.40322e-06 -1.19403e-05 5.92358e-05 6.19154e-05 -2.78963e-05 9.65194e-06 2.56414e-06 0.000396081 5.56495e-05 -0.000544359 -3.24123e-05 0.000291212 0.00174866 -0.000398164 -0.00226931 -0.000463173 0.00159796 0.00340285 -0.00213186 -0.00229823 -0.00208968 0.0033324 0.0161759 0.00513167 0.00252678 0.00154631 -0.00383223 0.00920296 0.00926334 0.00481466 0.00048881 -0.00217192 0.00581223 0.00610284 0.00405259 0.000978666 -0.000329205 0.00346154 0.00336875 0.00240494 0.00106929 0.000242572 0.00114776 0.00108217 0.000802362 0.000430861 0.00014863 -0.00114776 -0.00108217 -0.000802362 -0.000430861 -0.00014863 -0.00346154 -0.00336875 -0.00240494 -0.00106929 -0.000242572 -0.00581223 -0.00610284 -0.00405259 -0.000978666 0.000329205 -0.00920296 -0.00926334 -0.00481466 -0.00048881 0.00217192 -0.0161759 -0.00513167 -0.00252678 -0.00154631 0.00383223 
</DataArray>
<DataArray Name="Strain_13" format="ascii" type="Float64">
0 0 0 0 0 0 0 0 0 0 0 0 0 0 0 0 0 0 0 0 0 0 0 0 0 0 0 0 0 0 0 0 0 0 0 0 0 0 0 0 0 0 0 0 0 0 0 0 0 0 0 0 0 0 0 0 0 0 0 0 0 0 0 0 0 0 0 0 0 0 0 0 0 0 0 0 0 0 0 0 0 0 0 0 0 0 0 0 0 0 0 0 0 0 0 0 0 0 0 0 
</DataArray>
<DataArray Name="Strain_23" format="ascii" type="Float64">
0 0 0 0 0 0 0 0 0 0 0 0 0 0 0 0 0 0 0 0 0 0 0 0 0 0 0 0 0 0 0 0 0 0 0 0 0 0 0 0 0 0 0 0 0 0 0 0 0 0 0 0 0 0 0 0 0 0 0 0 0 0 0 0 0 0 0 0 0 0 0 0 0 0 0 0 0 0 0 0 0 0 0 0 0 0 0 0 0 0 0 0 0 0 0 0 0 0 0 0 
</DataArray>
<DataArray Name="Strain_33" format="ascii" type="Float64">
1 1 1 1 1 1 1 1 1 1 1 1 1 1 1 1 1 1 1 1 1 1 1 1 1 1 1 1 1 1 1 1 1 1 1 1 1 1 1 1 1 1 1 1 1 1 1 1 1 1 1 1 1 1 1 1 1 1 1 1 1 1 1 1 1 1 1 1 1 1 1 1 1 1 1 1 1 1 1 1 1 1 1 1 1 1 1 1 1 1 1 1 1 1 1 1 1 1 1 1 
</DataArray>
<DataArray Name="Stress_11" format="ascii" type="Float64">
91.2256 33.5038 -24.3602 -82.2241 -139.948 91.1084 33.3248 -24.3674 -82.0616 -139.847 91.1451 33.3652 -24.3708 -82.1065 -139.885 91.1558 33.3887 -24.3713 -82.1304 -139.896 91.1583 33.3936 -24.3711 -82.1351 -139.898 91.1583 33.3936 -24.3711 -82.1351 -139.898 91.1558 33.3887 -24.3713 -82.1304 -139.896 91.1451 33.3652 -24.3708 -82.1065 -139.885 91.1084 33.3248 -24.3674 -82.0616 -139.847 91.2256 33.5038 -24.3602 -82.2241 -139.948 -1.96912 -2.55197 -3.1321 -3.7109 -4.28789 -1.97752 -2.55302 -3.13088 -3.70842 -4.28655 -1.97834 -2.55486 -3.13142 -3.70889 -4.2869 -1.97885 -2.55546 -3.13225 -3.70947 -4.28708 -1.97908 -2.55578 -3.13262 -3.70975 -4.28716 -1.97908 -2.55578 -3.13262 -3.70975 -4.28716 -1.97885 -2.55546 -3.13225 -3.70947 -4.28708 -1.97834 -2.55486 -3.13142 -3.70889 -4.2869 -1.97752 -2.55302 -3.13088 -3.70842 -4.28655 -1.96912 -2.55197 -3.1321 -3.7109 -4.28789 
</DataArray>
<DataArray Name="Stress_22" format="ascii" type="Float64">
90.6177 33.4141 -24.3678 -82.1488 -139.369 90.6739 33.2588 -24.3675 -81.9967 -139.426 90.706 33.1862 -24.3692 -81.9276 -139.455 90.7144 33.1721 -24.3708 -81.9156 -139.462 90.7162 33.1712 -24.3716 -81.9155 -139.463 90.7162 33.1712 -24.3716 -81.9155 -139.463 90.7144 33.1721 -24.3708 -81.9156 -139.462 90.706 33.1862 -24.3692 -81.9276 -139.455 90.6739 33.2588 -24.3675 -81.9967 -139.426 90.6177 33.4141 -24.3678 -82.1488 -139.369 -1.96948 -2.5537 -3.13146 -3.70964 -4.28183 -1.971 -2.55087 -3.13051 -3.7077 -4.28263 -1.97174 -2.55027 -3.12885 -3.70635 -4.28294 -1.97196 -2.54997 -3.12801 -3.7056 -4.2828 -1.97199 -2.54983 -3.12768 -3.7053 -4.28262 -1.97199 -2.54983 -3.12768 -3.7053 -4.28262 -1.97196 -2.54997 -3.12801 -3.7056 -4.2828 -1.97174 -2.55027 -3.12885 -3.70635 -4.28294 -1.971 -2.55087 -3.13051 -3.7077 -4.28263 -1.96948 -2.5537 -3.13146 -3.70964 -4.28183 
</DataArray>
<DataArray Name="Stress_12" format="ascii" type="Float64">
-0.141786 0.088828 0.0957602 0.0870707 -0.138851 -0.0728616 0.0165903 0.0945552 0.019299 -0.0665821 -0.0165035 -0.00231875 0.0226818 0.00135052 -0.0121339 -0.00246818 -0.00257983 0.00116235 -0.000402167 -0.00010684 -0.000234434 -0.000898426 -0.000644446 -0.000225136 0.000497517 0.000234434 0.000898426 0.000644446 0.000225136 -0.000497517 0.00246818 0.00257983 -0.00116235 0.000402167 0.00010684 0.0165035 0.00231875 -0.0226818 -0.00135052 0.0121339 0.0728616 -0.0165903 -0.0945552 -0.019299 0.0665821 0.141786 -0.088828 -0.0957602 -0.0870707 0.138851 0.00674001 0.00213821 0.00105283 0.000644301 -0.00159678 0.0038346 0.00385975 0.00200612 0.000203672 -0.000904972 0.00242178 0.00254287 0.00168859 0.000407781 -0.00013717 0.00144232 0.00140366 0.00100207 0.000445541 0.000101073 0.000478239 0.00045091 0.00033432 0.000179527 6.19299e-05 -0.000478239 -0.00045091 -0.00033432 -0.000179527 -6.19299e-05 -0.00144232 -0.00140366 -0.00100207 -0.000445541 -0.000101073 -0.00242178 -0.00254287 -0.00168859 -0.000407781 0.00013717 -0.0038346 -0.00385975 -0.00200612 -0.000203672 0.000904972 -0.00674001 -0.00213821 -0.00105283 -0.000644301 0.00159678 
</DataArray>
<DataArray Name="Stress_13" format="ascii" type="Float64">
0 0 0 0 0 0 0 0 0 0 0 0 0 0 0 0 0 0 0 0 0 0 0 0 0 0 0 0 0 0 0 0 0 0 0 0 0 0 0 0 0 0 0 0 0 0 0 0 0 0 0 0 0 0 0 0 0 0 0 0 0 0 0 0 0 0 0 0 0 0 0 0 0 0 0 0 0 0 0 0 0 0 0 0 0 0 0 0 0 0 0 0 0 0 0 0 0 0 0 0 
</DataArray>
<DataArray Name="Stress_23" format="ascii" type="Float64">
0 0 0 0 0 0 0 0 0 0 0 0 0 0 0 0 0 0 0 0 0 0 0 0 0 0 0 0 0 0 0 0 0 0 0 0 0 0 0 0 0 0 0 0 0 0 0 0 0 0 0 0 0 0 0 0 0 0 0 0 0 0 0 0 0 0 0 0 0 0 0 0 0 0 0 0 0 0 0 0 0 0 0 0 0 0 0 0 0 0 0 0 0 0 0 0 0 0 0 0 
</DataArray>
<DataArray Name="Stress_33" format="ascii" type="Float64">
136.369 113.384 90.2544 67.1254 44.1365 136.356 113.317 90.253 67.1883 44.1454 136.37 113.31 90.252 67.1932 44.132 136.374 113.312 90.2516 67.1908 44.1285 136.375 113.313 90.2515 67.1899 44.1277 136.375 113.313 90.2515 67.1899 44.1277 136.374 113.312 90.2516 67.1908 44.1285 136.37 113.31 90.252 67.1932 44.132 136.356 113.317 90.253 67.1883 44.1454 136.369 113.384 90.2544 67.1254 44.1365 0.21228 -0.0211342 -0.252713 -0.484109 -0.713944 0.210295 -0.0207785 -0.252278 -0.483225 -0.713836 0.209984 -0.021025 -0.252054 -0.483047 -0.713969 0.209838 -0.0210878 -0.252052 -0.483014 -0.713978 0.209785 -0.0211219 -0.25206 -0.483011 -0.713956 0.209785 -0.0211219 -0.25206 -0.483011 -0.713956 0.209838 -0.0210878 -0.252052 -0.483014 -0.713978 0.209984 -0.021025 -0.252054 -0.483047 -0.713969 0.210295 -0.0207785 -0.252278 -0.483225 -0.713836 0.21228 -0.0211342 -0.252713 -0.484109 -0.713944 
</DataArray>
</CellData>
<Points>
<DataArray NumberOfComponents="3" format="ascii" type="Float64">
-0.05 -0.05 0 -0.05 0 0 -0.05 -0.04 0 -0.05 -0.03 0 -0.05 -0.02 0 -0.05 -0.01 0 0 0 0 -0.04 0 0 -0.03 0 0 -0.02 0 0 -0.01 0 0 0 -0.05 0 0 -0.01 0 0 -0.02 0 0 -0.03 0 0 -0.04 0 -0.01 -0.05 0 -0.02 -0.05 0 -0.03 -0.05 0 -0.04 -0.05 0 -0.04 -0.04 0 -0.04 -0.03 0 -0.04 -0.02 0 -0.04 -0.01 0 -0.03 -0.04 0 -0.03 -0.03 0 -0.03 -0.02 0 -0.03 -0.01 0 -0.02 -0.04 0 -0.02 -0.03 0 -0.02 -0.02 0 -0.02 -0.01 0 -0.01 -0.04 0 -0.01 -0.03 0 -0.01 -0.02 0 -0.01 -0.01 0 -0.05 0.05 0 -0.05 0.01 0 -0.05 0.02 0 -0.05 0.03 0 -0.05 0.04 0 0 0.05 0 -0.04 0.05 0 -0.03 0.05 0 -0.02 0.05 0 -0.01 0.05 0 0 0.04 0 0 0.03 0 0 0.02 0 0 0.01 0 -0.04 0.01 0 -0.04 0.02 0 -0.04 0.03 0 -0.04 0.04 0 -0.03 0.01 0 -0.03 0.02 0 -0.03 0.03 0 -0.03 0.04 0 -0.02 0.01 0 -0.02 0.02 0 -0.02 0.03 0 -0.02 0.04 0 -0.01 0.01 0 -0.01 0.02 0 -0.01 0.03 0 -0.01 0.04 0 0.05 0 0 0.01 0 0 0.02 0 0 0.03 0 0 0.04 0 0 0.05 -0.05 0 0.05 -0.01 0 0.05 -0.02 0 0.05 -0.03 0 0.05 -0.04 0 0.04 -0.05 0 0.03 -0.05 0 0.02 -0.05 0 0.01 -0.05 0 0.01 -0.04 0 0.01 -0.03 0 0.01 -0.02 0 0.01 -0.01 0 0.02 -0.04 0 0.02 -0.03 0 0.02 -0.02 0 0.02 -0.01 0 0.03 -0.04 0 0.03 -0.03 0 0.03 -0.02 0 0.03 -0.01 0 0.04 -0.04 0 0.04 -0.03 0 0.04 -0.02 0 0.04 -0.01 0 0.05 0.05 0 0.01 0.05 0 0.02 0.05 0 0.03 0.05 0 0.04 0.05 0 0.05 0.04 0 0.05 0.03 0 0.05 0.02 0 0.05 0.01 0 0.01 0.01 0 0.01 0.02 0 0.01 0.03 0 0.01 0.04 0 0.02 0.01 0 0.02 0.02 0 0.02 0.03 0 0.02 0.04 0 0.03 0.01 0 0.03 0.02 0 0.03 0.03 0 0.03 0.04 0 0.04 0.01 0 0.04 0.02 0 0.04 0.03 0 0.04 0.04 0 
</DataArray>
</Points>
<Cells>
<DataArray Name="connectivity" format="ascii" type="Int64">
0 19 20 2 19 18 24 20 18 17 28 24 17 16 32 28 16 11 15 32 2 20 21 3 20 24 25 21 24 28 29 25 28 32 33 29 32 15 14 33 3 21 22 4 21 25 26 22 25 29 30 26 29 33 34 30 33 14 13 34 4 22 23 5 22 26 27 23 26 30 31 27 30 34 35 31 34 13 12 35 5 23 7 1 23 27 8 7 27 31 9 8 31 35 10 9 35 12 6 10 1 7 50 37 7 8 54 50 8 9 58 54 9 10 62 58 10 6 49 62 37 50 51 38 50 54 55 51 54 58 59 55 58 62 63 59 62 49 48 63 38 51 52 39 51 55 56 52 55 59 60 56 59 63 64 60 63 48 47 64 39 52 53 40 52 56 57 53 56 60 61 57 60 64 65 61 64 47 46 65 40 53 42 36 53 57 43 42 57 61 44 43 61 65 45 44 65 46 41 45 11 79 80 15 79 78 84 80 78 77 88 84 77 76 92 88 76 71 75 92 15 80 81 14 80 84 85 81 84 88 89 85 88 92 93 89 92 75 74 93 14 81 82 13 81 85 86 82 85 89 90 86 89 93 94 90 93 74 73 94 13 82 83 12 82 86 87 83 86 90 91 87 90 94 95 91 94 73 72 95 12 83 67 6 83 87 68 67 87 91 69 68 91 95 70 69 95 72 66 70 6 67 105 49 67 68 109 105 68 69 113 109 69 70 117 113 70 66 104 117 49 105 106 48 105 109 110 106 109 113 114 110 113 117 118 114 117 104 103 118 48 106 107 47 106 110 111 107 110 114 115 111 114 118 119 115 118 103 102 119 47 107 108 46 107 111 112 108 111 115 116 112 115 119 120 116 119 102 101 120 46 108 97 41 108 112 98 97 112 116 99 98 116 120 100 99 120 101 96 100 
</DataArray>
<DataArray Name="offsets" format="ascii" type="Int64">
4 8 12 16 20 24 28 32 36 40 44 48 52 56 60 64 68 72 76 80 84 88 92 96 100 104 108 112 116 120 124 128 132 136 140 144 148 152 156 160 164 168 172 176 180 184 188 192 196 200 204 208 212 216 220 224 228 232 236 240 244 248 252 256 260 264 268 272 276 280 284 288 292 296 300 304 308 312 316 320 324 328 332 336 340 344 348 352 356 360 364 368 372 376 380 384 388 392 396 400 
</DataArray>
<DataArray Name="types" format="ascii" type="Int8">
9 9 9 9 9 9 9 9 9 9 9 9 9 9 9 9 9 9 9 9 9 9 9 9 9 9 9 9 9 9 9 9 9 9 9 9 9 9 9 9 9 9 9 9 9 9 9 9 9 9 9 9 9 9 9 9 9 9 9 9 9 9 9 9 9 9 9 9 9 9 9 9 9 9 9 9 9 9 9 9 9 9 9 9 9 9 9 9 9 9 9 9 9 9 9 9 9 9 9 9 
</DataArray>
</Cells>
</Piece>
</UnstructuredGrid>
</VTKFile>
