<?xml version="1.0"?>
<VTKFile byte_order="LittleEndian" type="UnstructuredGrid" version="0.1">
<UnstructuredGrid>
<Piece NumberOfCells="100" NumberOfPoints="121">
<PointData>
<DataArray Name="Warping_X" format="ascii" type="Float64">
-2.0713 0.0374328 -1.3137 -0.722601 -0.300339 -0.0470059 -0.00455244 -0.31084 -0.489177 -0.497571 -0.336026 -2.11359 -0.0889897 -0.34232 -0.764591 -1.35575 -2.4459 -2.6082 -2.59975 -2.42053 -1.66174 -1.07081 -0.648596 -0.395278 -1.83958 -1.24893 -0.826892 -0.57361 -1.84799 -1.25732 -0.835283 -0.582004 -1.68697 -1.09599 -0.673776 -0.420462 -2.0713 -0.0470059 -0.300339 -0.722601 -1.3137 -2.11359 -2.42053 -2.59975 -2.6082 -2.4459 -1.35575 -0.764591 -0.34232 -0.0889897 -0.395278 -0.648596 -1.07081 -1.66174 -0.57361 -0.826892 -1.24893 -1.83958 -0.582004 -0.835283 -1.25732 -1.84799 -0.420462 -0.673776 -1.09599 -1.68697 4.20072 0.497658 1.16921 2.01015 3.02061 2.08479 4.11599 3.86176 3.43792 2.84468 0.903675 -0.107687 -0.948501 -1.61807 -0.854215 -0.26278 0.15971 0.413171 -0.184499 0.40817 0.830985 1.08466 0.655346 1.24821 1.67158 1.92552 1.66489 2.25801 2.68175 2.93591 2.08479 -1.61807 -0.948501 -0.107687 0.903675 2.84468 3.43792 3.86176 4.11599 0.413171 0.15971 -0.26278 -0.854215 1.08466 0.830985 0.40817 -0.184499 1.92552 1.67158 1.24821 0.655346 2.93591 2.68175 2.25801 1.66489 
</DataArray>
<DataArray Name="Warping_Y" format="ascii" type="Float64">
2.14965 -6.99484e-15 1.72138 1.2915 0.861076 0.430544 -8.84553e-15 -7.41702e-15 -7.75639e-15 -8.16905e-15 -8.64896e-15 -2.06603 -0.413782 -0.82756 -1.24125 -1.65442 -1.22632 -0.380951 0.464922 1.31023 1.04719 0.785082 0.523346 0.261672 0.371784 0.278579 0.185651 0.0928182 -0.304604 -0.228205 -0.152079 -0.0760355 -0.980077 -0.73476 -0.489801 -0.244899 -2.14965 -0.430544 -0.861076 -1.2915 -1.72138 2.06603 -1.31023 -0.464922 0.380951 1.22632 1.65442 1.24125 0.82756 0.413782 -0.261672 -0.523346 -0.785082 -1.04719 -0.0928182 -0.185651 -0.278579 -0.371784 0.0760355 0.152079 0.228205 0.304604 0.244899 0.489801 0.73476 0.980077 4.35435e-15 5.95041e-15 1.27897e-14 1.34222e-14 9.99208e-15 -6.31007 -1.26264 -2.52533 -3.78796 -5.04992 -5.46842 -4.62068 -3.77129 -2.92058 -2.33478 -1.751 -1.16732 -0.583643 -3.01611 -2.26132 -1.50727 -0.753565 -3.69582 -2.77108 -1.847 -0.923408 -4.3736 -3.2797 -2.18629 -1.09309 6.31007 2.92058 3.77129 4.62068 5.46842 5.04992 3.78796 2.52533 1.26264 0.583643 1.16732 1.751 2.33478 0.753565 1.50727 2.26132 3.01611 0.923408 1.847 2.77108 3.69582 1.09309 2.18629 3.2797 4.3736 
</DataArray>
<DataArray Name="Warping_Z" format="ascii" type="Float64">
0 0 0 0 0 0 0 0 0 0 0 0 0 0 0 0 0 0 0 0 0 0 0 0 0 0 0 0 0 0 0 0 0 0 0 0 0 0 0 0 0 0 0 0 0 0 0 0 0 0 0 0 0 0 0 0 0 0 0 0 0 0 0 0 0 0 0 0 0 0 0 0 0 0 0 0 0 0 0 0 0 0 0 0 0 0 0 0 0 0 0 0 0 0 0 0 0 0 0 0 0 0 0 0 0 0 0 0 0 0 0 0 0 0 0 0 0 0 0 0 0 
</DataArray>
</PointData>
<CellData>
<DataArray Name="MaterialId" format="ascii" type="Float64">
1 1 1 1 1 1 1 1 1 1 1 1 1 1 1 1 1 1 1 1 1 1 1 1 1 1 1 1 1 1 1 1 1 1 1 1 1 1 1 1 1 1 1 1 1 1 1 1 1 1 2 2 2 2 2 2 2 2 2 2 2 2 2 2 2 2 2 2 2 2 2 2 2 2 2 2 2 2 2 2 2 2 2 2 2 2 2 2 2 2 2 2 2 2 2 2 2 2 2 2 
</DataArray>
<DataArray Name="FiberAngle" format="ascii" type="Float64">
0 0 0 0 0 0 0 0 0 0 0 0 0 0 0 0 0 0 0 0 0 0 0 0 0 0 0 0 0 0 0 0 0 0 0 0 0 0 0 0 0 0 0 0 0 0 0 0 0 0 0 0 0 0 0 0 0 0 0 0 0 0 0 0 0 0 0 0 0 0 0 0 0 0 0 0 0 0 0 0 0 0 0 0 0 0 0 0 0 0 0 0 0 0 0 0 0 0 0 0 
</DataArray>
<DataArray Name="Strain_11" format="ascii" type="Float64">
-34.8633 -17.8528 -0.843275 16.1663 33.1762 -34.8119 -17.7979 -0.84044 16.1176 33.131 -34.8231 -17.8208 -0.839259 16.1419 33.1427 -34.8265 -17.8314 -0.839231 16.1525 33.1464 -34.8273 -17.8334 -0.83937 16.1543 33.1473 -34.8273 -17.8334 -0.83937 16.1543 33.1473 -34.8265 -17.8314 -0.839231 16.1525 33.1464 -34.8231 -17.8208 -0.839259 16.1419 33.1427 -34.8119 -17.7979 -0.84044 16.1176 33.131 -34.8633 -17.8528 -0.843275 16.1663 33.1762 49.8527 66.9644 84.033 101.045 118.045 50.1672 67.0333 83.9944 100.967 117.985 50.192 67.1113 84.0318 100.999 117.996 50.2095 67.138 84.0726 101.029 118.004 50.2185 67.1517 84.0903 101.043 118.009 50.2185 67.1517 84.0903 101.043 118.009 50.2095 67.138 84.0726 101.029 118.004 50.192 67.1113 84.0318 100.999 117.996 50.1672 67.0333 83.9944 100.967 117.985 49.8527 66.9644 84.033 101.045 118.045 
</DataArray>
<DataArray Name="Strain_22" format="ascii" type="Float64">
-34.5656 -17.8089 -0.839538 16.1294 32.8924 -34.5991 -17.7656 -0.840366 16.0858 32.9245 -34.6081 -17.7332 -0.840061 16.0543 32.9324 -34.6103 -17.7254 -0.839465 16.0472 32.9339 -34.6108 -17.7245 -0.839136 16.0467 32.9341 -34.6108 -17.7245 -0.839136 16.0467 32.9341 -34.6103 -17.7254 -0.839465 16.0472 32.9339 -34.6081 -17.7332 -0.840061 16.0543 32.9324 -34.5991 -17.7656 -0.840366 16.0858 32.9245 -34.5656 -17.8089 -0.839538 16.1294 32.8924 49.8706 67.0495 84.0019 100.984 117.748 49.8476 66.9283 83.9766 100.932 117.793 49.8685 66.8866 83.9063 100.874 117.802 49.8725 66.8691 83.8652 100.84 117.795 49.8713 66.8604 83.8487 100.825 117.786 49.8713 66.8604 83.8487 100.825 117.786 49.8725 66.8691 83.8652 100.84 117.795 49.8685 66.8866 83.9063 100.874 117.802 49.8476 66.9283 83.9766 100.932 117.793 49.8706 67.0495 84.0019 100.984 117.748 
</DataArray>
<DataArray Name="Strain_12" format="ascii" type="Float64">
0.138864 -0.0869969 -0.0937862 -0.0852758 0.135989 0.0713596 -0.0162483 -0.092606 -0.0189012 0.0652096 0.0161633 0.00227095 -0.0222142 -0.00132268 0.0118838 0.0024173 0.00252665 -0.00113839 0.000393877 0.000104638 0.000229601 0.000879906 0.000631162 0.000220495 -0.000487261 -0.000229601 -0.000879906 -0.000631162 -0.000220495 0.000487261 -0.0024173 -0.00252665 0.00113839 -0.000393877 -0.000104638 -0.0161633 -0.00227095 0.0222142 0.00132268 -0.0118838 -0.0713596 0.0162483 0.092606 0.0189012 -0.0652096 -0.138864 0.0869969 0.0937862 0.0852758 -0.135989 -0.660107 -0.209414 -0.103113 -0.0631019 0.156386 -0.375555 -0.378019 -0.196477 -0.0199474 0.0886317 -0.237186 -0.249045 -0.165379 -0.0399375 0.0134342 -0.141259 -0.137472 -0.098141 -0.0436357 -0.00989891 -0.0468381 -0.0441615 -0.0327428 -0.0175826 -0.00606532 0.0468381 0.0441615 0.0327428 0.0175826 0.00606532 0.141259 0.137472 0.098141 0.0436357 0.00989891 0.237186 0.249045 0.165379 0.0399375 -0.0134342 0.375555 0.378019 0.196477 0.0199474 -0.0886317 0.660107 0.209414 0.103113 0.0631019 -0.156386 
</DataArray>
<DataArray Name="Strain_13" format="ascii" type="Float64">
0 0 0 0 0 0 0 0 0 0 0 0 0 0 0 0 0 0 0 0 0 0 0 0 0 0 0 0 0 0 0 0 0 0 0 0 0 0 0 0 0 0 0 0 0 0 0 0 0 0 0 0 0 0 0 0 0 0 0 0 0 0 0 0 0 0 0 0 0 0 0 0 0 0 0 0 0 0 0 0 0 0 0 0 0 0 0 0 0 0 0 0 0 0 0 0 0 0 0 0 
</DataArray>
<DataArray Name="Strain_23" format="ascii" type="Float64">
0 0 0 0 0 0 0 0 0 0 0 0 0 0 0 0 0 0 0 0 0 0 0 0 0 0 0 0 0 0 0 0 0 0 0 0 0 0 0 0 0 0 0 0 0 0 0 0 0 0 0 0 0 0 0 0 0 0 0 0 0 0 0 0 0 0 0 0 0 0 0 0 0 0 0 0 0 0 0 0 0 0 0 0 0 0 0 0 0 0 0 0 0 0 0 0 0 0 0 0 
</DataArray>
<DataArray Name="Strain_33" format="ascii" type="Float64">
0.045 0.035 0.025 0.015 0.005 0.045 0.035 0.025 0.015 0.005 0.045 0.035 0.025 0.015 0.005 0.045 0.035 0.025 0.015 0.005 0.045 0.035 0.025 0.015 0.005 0.045 0.035 0.025 0.015 0.005 0.045 0.035 0.025 0.015 0.005 0.045 0.035 0.025 0.015 0.005 0.045 0.035 0.025 0.015 0.005 0.045 0.035 0.025 0.015 0.005 -0.005 -0.015 -0.025 -0.035 -0.045 -0.005 -0.015 -0.025 -0.035 -0.045 -0.005 -0.015 -0.025 -0.035 -0.045 -0.005 -0.015 -0.025 -0.035 -0.045 -0.005 -0.015 -0.025 -0.035 -0.045 -0.005 -0.015 -0.025 -0.035 -0.045 -0.005 -0.015 -0.025 -0.035 -0.045 -0.005 -0.015 -0.025 -0.035 -0.045 -0.005 -0.015 -0.025 -0.035 -0.045 -0.005 -0.015 -0.025 -0.035 -0.045 
</DataArray>
<DataArray Name="Stress_11" format="ascii" type="Float64">
-4832.6 -2477.37 -116.323 2244.71 4600.06 -4827.82 -2470.06 -116.031 2238.08 4595.93 -4829.32 -2471.71 -115.892 2239.91 4597.45 -4829.76 -2472.67 -115.872 2240.89 4597.9 -4829.86 -2472.87 -115.878 2241.08 4598.01 -4829.86 -2472.87 -115.878 2241.08 4598.01 -4829.76 -2472.67 -115.872 2240.89 4597.9 -4829.32 -2471.71 -115.892 2239.91 4597.45 -4827.82 -2470.06 -116.031 2238.08 4595.93 -4832.6 -2477.37 -116.323 2244.71 4600.06 69.2434 93.0256 116.697 140.314 163.857 69.5865 93.0685 116.647 140.213 163.802 69.6199 93.1435 116.669 140.232 163.817 69.6405 93.1683 116.703 140.255 163.824 69.6501 93.1812 116.718 140.267 163.827 69.6501 93.1812 116.718 140.267 163.827 69.6405 93.1683 116.703 140.255 163.824 69.6199 93.1435 116.669 140.232 163.817 69.5865 93.0685 116.647 140.213 163.802 69.2434 93.0256 116.697 140.314 163.857 
</DataArray>
<DataArray Name="Stress_22" format="ascii" type="Float64">
-4807.8 -2473.7 -116.012 2241.64 4576.41 -4810.09 -2467.37 -116.025 2235.43 4578.73 -4811.4 -2464.4 -115.958 2232.61 4579.93 -4811.74 -2463.83 -115.891 2232.12 4580.2 -4811.82 -2463.79 -115.859 2232.12 4580.24 -4811.82 -2463.79 -115.859 2232.12 4580.24 -4811.74 -2463.83 -115.891 2232.12 4580.2 -4811.4 -2464.4 -115.958 2232.61 4579.93 -4810.09 -2467.37 -116.025 2235.43 4578.73 -4807.8 -2473.7 -116.012 2241.64 4576.41 69.2584 93.0965 116.671 140.263 163.61 69.3202 92.981 116.632 140.183 163.642 69.3503 92.9563 116.564 140.128 163.655 69.3596 92.9443 116.53 140.098 163.649 69.3607 92.9384 116.517 140.086 163.642 69.3607 92.9384 116.517 140.086 163.642 69.3596 92.9443 116.53 140.098 163.649 69.3503 92.9563 116.564 140.128 163.655 69.3202 92.981 116.632 140.183 163.642 69.2584 93.0965 116.671 140.263 163.61 
</DataArray>
<DataArray Name="Stress_12" format="ascii" type="Float64">
5.78603 -3.6249 -3.90779 -3.55319 5.66625 2.97334 -0.677019 -3.85862 -0.787556 2.71709 0.673476 0.0946236 -0.9256 -0.0551123 0.495162 0.100722 0.105278 -0.0474335 0.0164117 0.00435994 0.00956679 0.0366631 0.0262986 0.00918736 -0.0203027 -0.00956679 -0.0366631 -0.0262986 -0.00918736 0.0203027 -0.100722 -0.105278 0.0474335 -0.0164117 -0.00435994 -0.673476 -0.0946236 0.9256 0.0551123 -0.495162 -2.97334 0.677019 3.85862 0.787556 -2.71709 -5.78603 3.6249 3.90779 3.55319 -5.66625 -0.275047 -0.0872564 -0.0429641 -0.0262927 0.0651614 -0.156482 -0.157509 -0.081866 -0.00831148 0.0369302 -0.0988282 -0.10377 -0.0689083 -0.0166407 0.00559764 -0.0588584 -0.0572806 -0.0408924 -0.0181817 -0.00412458 -0.019516 -0.0184008 -0.013643 -0.00732614 -0.00252724 0.019516 0.0184008 0.013643 0.00732614 0.00252724 0.0588584 0.0572806 0.0408924 0.0181817 0.00412458 0.0988282 0.10377 0.0689083 0.0166407 -0.00559764 0.156482 0.157509 0.081866 0.00831148 -0.0369302 0.275047 0.0872564 0.0429641 0.0262927 -0.0651614 
</DataArray>
<DataArray Name="Stress_13" format="ascii" type="Float64">
0 0 0 0 0 0 0 0 0 0 0 0 0 0 0 0 0 0 0 0 0 0 0 0 0 0 0 0 0 0 0 0 0 0 0 0 0 0 0 0 0 0 0 0 0 0 0 0 0 0 0 0 0 0 0 0 0 0 0 0 0 0 0 0 0 0 0 0 0 0 0 0 0 0 0 0 0 0 0 0 0 0 0 0 0 0 0 0 0 0 0 0 0 0 0 0 0 0 0 0 
</DataArray>
<DataArray Name="Stress_23" format="ascii" type="Float64">
0 0 0 0 0 0 0 0 0 0 0 0 0 0 0 0 0 0 0 0 0 0 0 0 0 0 0 0 0 0 0 0 0 0 0 0 0 0 0 0 0 0 0 0 0 0 0 0 0 0 0 0 0 0 0 0 0 0 0 0 0 0 0 0 0 0 0 0 0 0 0 0 0 0 0 0 0 0 0 0 0 0 0 0 0 0 0 0 0 0 0 0 0 0 0 0 0 0 0 0 
</DataArray>
<DataArray Name="Stress_33" format="ascii" type="Float64">
-1923.58 -986.714 -43.967 898.771 1835.79 -1923.08 -983.986 -43.9113 896.204 1835.43 -1923.64 -983.722 -43.87 896.005 1835.98 -1923.8 -983.8 -43.8527 896.103 1836.12 -1923.84 -983.832 -43.8474 896.14 1836.15 -1923.84 -983.832 -43.8474 896.14 1836.15 -1923.8 -983.8 -43.8527 896.103 1836.12 -1923.64 -983.722 -43.87 896.005 1835.98 -1923.08 -983.986 -43.9113 896.204 1835.43 -1923.58 -986.714 -43.967 898.771 1835.79 27.6954 37.2094 46.6486 56.0803 65.4483 27.7763 37.1949 46.6308 56.0442 65.4439 27.789 37.205 46.6217 56.037 65.4494 27.795 37.2075 46.6216 56.0356 65.4497 27.7972 37.2089 46.6219 56.0355 65.4488 27.7972 37.2089 46.6219 56.0355 65.4488 27.795 37.2075 46.6216 56.0356 65.4497 27.789 37.205 46.6217 56.037 65.4494 27.7763 37.1949 46.6308 56.0442 65.4439 27.6954 37.2094 46.6486 56.0803 65.4483 
</DataArray>
</CellData>
<Points>
<DataArray NumberOfComponents="3" format="ascii" type="Float64">
-0.05 -0.05 0 -0.05 0 0 -0.05 -0.04 0 -0.05 -0.03 0 -0.05 -0.02 0 -0.05 -0.01 0 0 0 0 -0.04 0 0 -0.03 0 0 -0.02 0 0 -0.01 0 0 0 -0.05 0 0 -0.01 0 0 -0.02 0 0 -0.03 0 0 -0.04 0 -0.01 -0.05 0 -0.02 -0.05 0 -0.03 -0.05 0 -0.04 -0.05 0 -0.04 -0.04 0 -0.04 -0.03 0 -0.04 -0.02 0 -0.04 -0.01 0 -0.03 -0.04 0 -0.03 -0.03 0 -0.03 -0.02 0 -0.03 -0.01 0 -0.02 -0.04 0 -0.02 -0.03 0 -0.02 -0.02 0 -0.02 -0.01 0 -0.01 -0.04 0 -0.01 -0.03 0 -0.01 -0.02 0 -0.01 -0.01 0 -0.05 0.05 0 -0.05 0.01 0 -0.05 0.02 0 -0.05 0.03 0 -0.05 0.04 0 0 0.05 0 -0.04 0.05 0 -0.03 0.05 0 -0.02 0.05 0 -0.01 0.05 0 0 0.04 0 0 0.03 0 0 0.02 0 0 0.01 0 -0.04 0.01 0 -0.04 0.02 0 -0.04 0.03 0 -0.04 0.04 0 -0.03 0.01 0 -0.03 0.02 0 -0.03 0.03 0 -0.03 0.04 0 -0.02 0.01 0 -0.02 0.02 0 -0.02 0.03 0 -0.02 0.04 0 -0.01 0.01 0 -0.01 0.02 0 -0.01 0.03 0 -0.01 0.04 0 0.05 0 0 0.01 0 0 0.02 0 0 0.03 0 0 0.04 0 0 0.05 -0.05 0 0.05 -0.01 0 0.05 -0.02 0 0.05 -0.03 0 0.05 -0.04 0 0.04 -0.05 0 0.03 -0.05 0 0.02 -0.05 0 0.01 -0.05 0 0.01 -0.04 0 0.01 -0.03 0 0.01 -0.02 0 0.01 -0.01 0 0.02 -0.04 0 0.02 -0.03 0 0.02 -0.02 0 0.02 -0.01 0 0.03 -0.04 0 0.03 -0.03 0 0.03 -0.02 0 0.03 -0.01 0 0.04 -0.04 0 0.04 -0.03 0 0.04 -0.02 0 0.04 -0.01 0 0.05 0.05 0 0.01 0.05 0 0.02 0.05 0 0.03 0.05 0 0.04 0.05 0 0.05 0.04 0 0.05 0.03 0 0.05 0.02 0 0.05 0.01 0 0.01 0.01 0 0.01 0.02 0 0.01 0.03 0 0.01 0.04 0 0.02 0.01 0 0.02 0.02 0 0.02 0.03 0 0.02 0.04 0 0.03 0.01 0 0.03 0.02 0 0.03 0.03 0 0.03 0.04 0 0.04 0.01 0 0.04 0.02 0 0.04 0.03 0 0.04 0.04 0 
</DataArray>
</Points>
<Cells>
<DataArray Name="connectivity" format="ascii" type="Int64">
0 19 20 2 19 18 24 20 18 17 28 24 17 16 32 28 16 11 15 32 2 20 21 3 20 24 25 21 24 28 29 25 28 32 33 29 32 15 14 33 3 21 22 4 21 25 26 22 25 29 30 26 29 33 34 30 33 14 13 34 4 22 23 5 22 26 27 23 26 30 31 27 30 34 35 31 34 13 12 35 5 23 7 1 23 27 8 7 27 31 9 8 31 35 10 9 35 12 6 10 1 7 50 37 7 8 54 50 8 9 58 54 9 10 62 58 10 6 49 62 37 50 51 38 50 54 55 51 54 58 59 55 58 62 63 59 62 49 48 63 38 51 52 39 51 55 56 52 55 59 60 56 59 63 64 60 63 48 47 64 39 52 53 40 52 56 57 53 56 60 61 57 60 64 65 61 64 47 46 65 40 53 42 36 53 57 43 42 57 61 44 43 61 65 45 44 65 46 41 45 11 79 80 15 79 78 84 80 78 77 88 84 77 76 92 88 76 71 75 92 15 80 81 14 80 84 85 81 84 88 89 85 88 92 93 89 92 75 74 93 14 81 82 13 81 85 86 82 85 89 90 86 89 93 94 90 93 74 73 94 13 82 83 12 82 86 87 83 86 90 91 87 90 94 95 91 94 73 72 95 12 83 67 6 83 87 68 67 87 91 69 68 91 95 70 69 95 72 66 70 6 67 105 49 67 68 109 105 68 69 113 109 69 70 117 113 70 66 104 117 49 105 106 48 105 109 110 106 109 113 114 110 113 117 118 114 117 104 103 118 48 106 107 47 106 110 111 107 110 114 115 111 114 118 119 115 118 103 102 119 47 107 108 46 107 111 112 108 111 115 116 112 115 119 120 116 119 102 101 120 46 108 97 41 108 112 98 97 112 116 99 98 116 120 100 99 120 101 96 100 
</DataArray>
<DataArray Name="offsets" format="ascii" type="Int64">
4 8 12 16 20 24 28 32 36 40 44 48 52 56 60 64 68 72 76 80 84 88 92 96 100 104 108 112 116 120 124 128 132 136 140 144 148 152 156 160 164 168 172 176 180 184 188 192 196 200 204 208 212 216 220 224 228 232 236 240 244 248 252 256 260 264 268 272 276 280 284 288 292 296 300 304 308 312 316 320 324 328 332 336 340 344 348 352 356 360 364 368 372 376 380 384 388 392 396 400 
</DataArray>
<DataArray Name="types" format="ascii" type="Int8">
9 9 9 9 9 9 9 9 9 9 9 9 9 9 9 9 9 9 9 9 9 9 9 9 9 9 9 9 9 9 9 9 9 9 9 9 9 9 9 9 9 9 9 9 9 9 9 9 9 9 9 9 9 9 9 9 9 9 9 9 9 9 9 9 9 9 9 9 9 9 9 9 9 9 9 9 9 9 9 9 9 9 9 9 9 9 9 9 9 9 9 9 9 9 9 9 9 9 9 9 
</DataArray>
</Cells>
</Piece>
</UnstructuredGrid>
</VTKFile>
