<?xml version="1.0"?>
<VTKFile byte_order="LittleEndian" type="UnstructuredGrid" version="0.1">
<UnstructuredGrid>
<Piece NumberOfCells="100" NumberOfPoints="121">
<PointData>
<DataArray Name="Warping_X" format="ascii" type="Float64">
5.14288e-11 5.52174e-11 5.78211e-11 5.97521e-11 6.1428e-11 6.27813e-11 5.31616e-11 3.69275e-11 1.47571e-11 -1.10587e-11 -3.96915e-11 4.58768e-11 4.83336e-11 4.92908e-11 4.86798e-11 4.62426e-11 4.24078e-11 1.98596e-11 -2.5445e-12 -2.80845e-11 -5.71159e-11 -8.94537e-11 4.18161e-11 4.28295e-11 4.20873e-11 3.93817e-11 3.48883e-11 2.95315e-11 -6.03094e-13 -3.07305e-11 -6.10065e-11 -9.32161e-11 -1.28257e-10 3.98222e-11 3.95179e-11 3.74776e-11 3.33989e-11 2.75292e-11 2.07917e-11 -1.47168e-11 -4.88974e-11 -8.23543e-11 -1.17692e-10 -1.56043e-10 4.03482e-11 3.89112e-11 3.57917e-11 3.08566e-11 2.40346e-11 1.61018e-11 -2.25354e-11 -5.60418e-11 -9.1754e-11 -1.30826e-10 -1.73232e-10 4.4266e-11 4.10843e-11 3.64056e-11 3.05342e-11 2.40865e-11 1.74486e-11 -1.45593e-11 -5.00063e-11 -9.07174e-11 -1.34764e-10 -1.82032e-10 5.11157e-11 4.64278e-11 4.03095e-11 3.26529e-11 2.3323e-11 1.04147e-11 -1.22438e-11 -4.29955e-11 -7.47563e-11 -1.04655e-10 -1.23896e-10 5.77427e-11 5.23175e-11 4.47532e-11 3.5561e-11 2.43936e-11 1.20106e-11 -7.51379e-12 -3.15828e-11 -5.63382e-11 -7.82754e-11 -1.00178e-10 6.63388e-11 5.96698e-11 5.10013e-11 4.04884e-11 2.83074e-11 1.4486e-11 -1.04699e-12 -1.99832e-11 -3.99409e-11 -6.04274e-11 -8.21624e-11 7.7361e-11 6.93753e-11 5.9288e-11 4.72905e-11 3.36409e-11 1.85415e-11 6.9589e-12 -7.12791e-12 -2.41375e-11 -4.36972e-11 -6.57551e-11 9.12223e-11 8.15608e-11 6.96641e-11 5.58631e-11 4.04152e-11 2.36389e-11 2.06561e-11 1.08619e-11 -4.47989e-12 -2.42397e-11 -4.71911e-11 
</DataArray>
<DataArray Name="Warping_Y" format="ascii" type="Float64">
-2.01823e-12 4.81433e-12 1.26187e-11 2.21101e-11 3.45745e-11 5.52421e-11 1.07147e-10 1.52387e-10 1.98305e-10 2.46004e-10 2.97793e-10 1.99955e-12 7.08841e-12 1.30561e-11 2.06146e-11 3.12595e-11 4.69707e-11 8.08369e-11 1.18621e-10 1.55987e-10 1.94491e-10 2.36389e-10 5.15896e-12 8.44134e-12 1.26873e-11 1.85623e-11 2.6778e-11 3.774e-11 5.84195e-11 8.25757e-11 1.08826e-10 1.3718e-10 1.6873e-10 7.56733e-12 8.7611e-12 1.12875e-11 1.53848e-11 2.07611e-11 2.71125e-11 3.47057e-11 4.37499e-11 5.64416e-11 7.39269e-11 9.50565e-11 9.01979e-12 7.77824e-12 8.50001e-12 1.0876e-11 1.37234e-11 1.5305e-11 4.81324e-12 -2.96609e-12 -1.93646e-12 5.39393e-12 1.68483e-11 9.2415e-12 5.4592e-12 4.35015e-12 4.74691e-12 5.77784e-12 1.92784e-12 -4.02174e-11 -5.72131e-11 -6.53967e-11 -6.72644e-11 -6.50715e-11 9.66108e-12 1.77413e-12 -2.1412e-12 -4.37914e-12 -6.28763e-12 -4.04631e-12 -3.4073e-11 -5.33216e-11 -6.50029e-11 -7.29979e-11 -9.39368e-11 6.00984e-12 -3.23381e-12 -9.76392e-12 -1.43087e-11 -1.69873e-11 -1.71301e-11 -3.82414e-11 -5.74296e-11 -7.36718e-11 -9.04609e-11 -1.107e-10 7.08402e-13 -1.00799e-11 -1.86997e-11 -2.52189e-11 -2.97313e-11 -3.21065e-11 -4.88336e-11 -6.84893e-11 -8.85595e-11 -1.08694e-10 -1.27626e-10 -5.87338e-12 -1.85049e-11 -2.90072e-11 -3.7497e-11 -4.39969e-11 -4.83916e-11 -6.38161e-11 -8.47383e-11 -1.06855e-10 -1.28585e-10 -1.48011e-10 -1.37619e-11 -2.82136e-11 -4.04815e-11 -5.09165e-11 -5.95329e-11 -6.60193e-11 -8.35075e-11 -1.04714e-10 -1.27773e-10 -1.50451e-10 -1.71193e-10 
</DataArray>
<DataArray Name="Warping_Z" format="ascii" type="Float64">
0 0 0 0 0 0 0 0 0 0 0 0 0 0 0 0 0 0 0 0 0 0 0 0 0 0 0 0 0 0 0 0 0 0 0 0 0 0 0 0 0 0 0 0 0 0 0 0 0 0 0 0 0 0 0 0 0 0 0 0 0 0 0 0 0 0 0 0 0 0 0 0 0 0 0 0 0 0 0 0 0 0 0 0 0 0 0 0 0 0 0 0 0 0 0 0 0 0 0 0 0 0 0 0 0 0 0 0 0 0 0 0 0 0 0 0 0 0 0 0 0 
</DataArray>
</PointData>
<CellData>
<DataArray Name="MaterialId" format="ascii" type="Float64">
1 1 1 1 1 2 2 2 2 2 1 1 1 1 1 2 2 2 2 2 1 1 1 1 1 2 2 2 2 2 1 1 1 1 1 2 2 2 2 2 1 1 1 1 1 2 2 2 2 2 3 3 3 3 3 4 4 4 4 4 3 3 3 3 3 4 4 4 4 4 3 3 3 3 3 4 4 4 4 4 3 3 3 3 3 4 4 4 4 4 3 3 3 3 3 4 4 4 4 4 
</DataArray>
<DataArray Name="FiberAngle" format="ascii" type="Float64">
0 0 0 0 0 0 0 0 0 0 0 0 0 0 0 0 0 0 0 0 0 0 0 0 0 0 0 0 0 0 0 0 0 0 0 0 0 0 0 0 0 0 0 0 0 0 0 0 0 0 17 17 17 17 17 0 0 0 0 0 17 17 17 17 17 0 0 0 0 0 17 17 17 17 17 0 0 0 0 0 17 17 17 17 17 0 0 0 0 0 17 17 17 17 17 0 0 0 0 0 
</DataArray>
<DataArray Name="Strain_11" format="ascii" type="Float64">
3.12272e-10 1.78044e-10 6.60037e-11 -3.80672e-11 -1.24076e-10 -1.60839e-09 -1.93191e-09 -2.38552e-09 -2.74236e-09 -3.04853e-09 1.73513e-10 1.07459e-11 -1.65825e-10 -3.46534e-10 -4.59582e-10 -2.63413e-09 -2.62658e-09 -2.7908e-09 -3.06205e-09 -3.36894e-09 3.54603e-11 -1.39128e-10 -3.39212e-10 -5.18158e-10 -6.04715e-10 -3.28216e-09 -3.2154e-09 -3.18665e-09 -3.37738e-09 -3.66961e-09 -8.70614e-11 -2.57991e-10 -4.50687e-10 -6.34587e-10 -7.33517e-10 -3.70729e-09 -3.38435e-09 -3.45845e-09 -3.7205e-09 -4.03786e-09 -2.30935e-10 -3.89908e-10 -5.40325e-10 -6.63483e-10 -7.28539e-10 -3.53225e-09 -3.44767e-09 -3.82116e-09 -4.15595e-09 -4.48369e-09 -3.93484e-10 -5.39849e-10 -6.76398e-10 -7.88875e-10 -9.77314e-10 -2.73332e-09 -3.30993e-09 -3.62359e-09 -3.69726e-09 -3.32549e-09 -5.05661e-10 -6.8413e-10 -8.42438e-10 -1.02486e-09 -1.26457e-09 -2.10915e-09 -2.74103e-09 -2.82581e-09 -2.59177e-09 -2.05724e-09 -6.04712e-10 -8.11639e-10 -9.85255e-10 -1.16742e-09 -1.31022e-09 -1.75287e-09 -2.15026e-09 -2.23565e-09 -2.12119e-09 -2.18189e-09 -7.32737e-10 -9.37787e-10 -1.12552e-09 -1.29153e-09 -1.44604e-09 -1.35578e-09 -1.65115e-09 -1.84836e-09 -2.00231e-09 -2.18964e-09 -8.82365e-10 -1.09919e-09 -1.28993e-09 -1.45488e-09 -1.59378e-09 -7.28267e-10 -1.19405e-09 -1.61757e-09 -1.96598e-09 -2.25046e-09 
</DataArray>
<DataArray Name="Strain_22" format="ascii" type="Float64">
3.14593e-10 1.35571e-10 -5.29107e-11 -2.40532e-10 -5.79325e-10 -1.72906e-09 -3.0038e-09 -3.80422e-09 -4.69151e-09 -5.64585e-09 2.25617e-10 4.92074e-11 -1.21054e-10 -3.2669e-10 -6.85607e-10 -1.5824e-09 -2.92313e-09 -4.1603e-09 -5.22363e-09 -6.24849e-09 1.36407e-10 -5.40029e-11 -2.28862e-10 -4.59713e-10 -8.32219e-10 -1.71706e-09 -3.12698e-09 -4.5605e-09 -5.78185e-09 -6.84634e-09 2.34794e-11 -1.88515e-10 -3.64814e-10 -5.7733e-10 -9.42261e-10 -2.085e-09 -3.83042e-09 -5.2547e-09 -6.34555e-09 -7.33706e-09 -1.04866e-10 -3.23445e-10 -5.13947e-10 -7.03731e-10 -1.06614e-09 -2.92039e-09 -4.96389e-09 -5.88536e-09 -6.80592e-09 -7.7289e-09 -1.63275e-10 -5.08821e-10 -7.8087e-10 -1.05958e-09 -9.01981e-10 8.51612e-12 5.01802e-10 2.14264e-10 -2.66988e-10 -1.72994e-09 -4.32959e-10 -6.31533e-10 -8.77612e-10 -1.03146e-09 -1.18917e-09 -8.6261e-10 -4.13827e-10 -6.38848e-10 -1.3066e-09 -1.71131e-09 -6.07376e-10 -7.89092e-10 -9.92298e-10 -1.18271e-09 -1.38602e-09 -1.27843e-09 -1.08259e-09 -1.29737e-09 -1.65604e-09 -1.75797e-09 -7.50341e-10 -9.3663e-10 -1.12928e-09 -1.32719e-09 -1.52754e-09 -1.56338e-09 -1.56157e-09 -1.72722e-09 -1.90928e-09 -2.01373e-09 -8.79861e-10 -1.05915e-09 -1.24469e-09 -1.44778e-09 -1.65819e-09 -1.86596e-09 -1.98336e-09 -2.0447e-09 -2.13923e-09 -2.25242e-09 
</DataArray>
<DataArray Name="Strain_12" format="ascii" type="Float64">
-2.57173e-11 -8.21061e-11 -1.27636e-10 -1.57417e-10 4.099e-11 1.60476e-09 5.12521e-10 4.849e-11 -1.34762e-10 -1.06627e-10 -5.96783e-11 -1.247e-10 -1.53406e-10 -8.95957e-11 1.22131e-10 1.06033e-09 6.6457e-10 1.25387e-10 -1.08173e-10 -7.27839e-11 -4.14672e-11 -5.74496e-11 -3.10036e-11 1.25106e-11 6.07306e-11 2.70961e-10 4.59873e-11 -2.86442e-11 7.75339e-13 2.08861e-11 -6.42429e-12 4.7776e-11 1.12258e-10 1.09338e-10 -1.25782e-11 -7.70348e-10 -6.8491e-10 -1.41144e-10 1.14109e-10 1.13083e-10 5.33484e-11 1.19982e-10 1.53207e-10 1.80389e-10 -4.34817e-11 -2.16571e-09 -5.38168e-10 -4.08864e-12 1.28051e-10 4.5442e-11 2.62011e-11 2.11151e-10 2.09069e-10 2.38825e-11 -4.70304e-10 -3.84452e-09 -1.3459e-09 1.55348e-10 1.81041e-09 3.47497e-09 -2.30692e-10 -5.59708e-12 2.84596e-11 -3.04211e-11 2.38251e-10 -2.2406e-09 -1.1147e-09 9.53607e-11 1.00065e-09 4.45954e-10 -2.0418e-10 -7.74726e-11 5.57979e-12 8.2513e-11 1.93559e-10 -1.44482e-09 -1.03887e-09 -4.15767e-10 -1.3392e-10 -1.65364e-10 -1.34607e-10 -5.64954e-11 3.99381e-12 5.6163e-11 1.30946e-10 -1.00451e-09 -9.85837e-10 -6.76395e-10 -4.66548e-10 -2.61046e-10 -5.18266e-11 -1.0431e-11 1.19685e-12 1.15277e-11 4.95331e-11 -7.05898e-10 -5.22088e-10 -3.76394e-10 -2.64628e-10 -1.07315e-10 
</DataArray>
<DataArray Name="Strain_13" format="ascii" type="Float64">
6.9083e-10 9.37525e-10 1.01746e-09 1.0023e-09 8.66889e-10 1.55089e-09 1.38307e-09 1.24541e-09 1.05698e-09 7.22452e-10 7.51474e-10 8.21673e-10 8.48441e-10 8.47969e-10 8.26505e-10 1.16675e-09 1.12294e-09 1.06138e-09 9.58454e-10 7.97662e-10 8.79424e-10 7.58818e-10 6.89407e-10 7.12369e-10 8.20373e-10 7.78499e-10 8.75459e-10 9.3036e-10 9.44078e-10 9.4805e-10 9.91473e-10 6.40069e-10 4.48587e-10 4.37333e-10 7.80333e-10 4.22844e-10 7.37322e-10 8.24874e-10 9.36574e-10 1.09981e-09 9.13759e-10 3.81104e-10 5.7977e-11 -8.83792e-11 7.79979e-11 8.26233e-10 6.26427e-10 6.83195e-10 8.49124e-10 1.17724e-09 1.12539e-10 -5.19545e-10 -1.17269e-09 -1.92838e-09 -3.11345e-09 3.10203e-09 1.39274e-09 1.1091e-09 1.14893e-09 1.42991e-09 -9.3092e-10 -1.80135e-09 -2.83332e-09 -4.11113e-09 -5.82778e-09 4.2741e-09 2.61096e-09 1.95943e-09 1.78445e-09 1.8464e-09 -1.64642e-09 -2.73943e-09 -3.89989e-09 -5.14455e-09 -6.40317e-09 3.61502e-09 2.99335e-09 2.44191e-09 2.19397e-09 2.14592e-09 -2.30552e-09 -3.42639e-09 -4.59375e-09 -5.81426e-09 -7.09033e-09 3.4478e-09 2.993e-09 2.60455e-09 2.39556e-09 2.37357e-09 -2.86755e-09 -3.92595e-09 -5.07791e-09 -6.31664e-09 -7.64738e-09 3.40699e-09 2.88929e-09 2.5451e-09 2.38426e-09 2.47521e-09 
</DataArray>
<DataArray Name="Strain_23" format="ascii" type="Float64">
9.77084e-10 8.88936e-10 7.05821e-10 5.12671e-10 3.75332e-10 1.51066e-10 -1.58244e-10 -3.91621e-10 -5.78199e-10 -6.55902e-10 7.53408e-10 7.86347e-10 6.84587e-10 5.54381e-10 4.97e-10 2.96747e-10 -3.82036e-11 -2.48984e-10 -3.44965e-10 -2.9058e-10 7.78918e-10 8.11075e-10 6.90947e-10 5.26519e-10 4.42168e-10 2.48039e-10 -5.27425e-11 -2.20458e-10 -2.69869e-10 -1.88241e-10 1.03718e-09 9.98325e-10 7.58884e-10 4.07456e-10 1.76731e-10 -2.48343e-11 -2.17846e-10 -2.93754e-10 -3.57334e-10 -2.94706e-10 1.63846e-09 1.34064e-09 9.30503e-10 3.65608e-10 -6.31715e-10 -7.29097e-10 -2.43592e-10 -4.20258e-10 -5.85807e-10 -6.58454e-10 4.68626e-09 3.28222e-09 1.56103e-09 -9.44743e-10 -4.97887e-09 -5.79714e-09 -3.24054e-09 -1.87166e-09 -9.80394e-10 -3.55269e-10 2.89853e-09 1.97732e-09 7.56067e-10 -5.81537e-10 -1.44448e-09 -2.16847e-09 -2.33478e-09 -1.63512e-09 -1.04054e-09 -6.13662e-10 2.23123e-09 1.49887e-09 7.15472e-10 -4.69049e-11 -7.92771e-10 -1.30326e-09 -1.41364e-09 -1.24843e-09 -9.50994e-10 -6.68835e-10 1.93326e-09 1.31957e-09 7.22152e-10 1.20959e-10 -4.90038e-10 -8.33918e-10 -8.91104e-10 -8.94013e-10 -8.27211e-10 -6.80136e-10 1.55512e-09 1.10722e-09 7.20904e-10 3.35551e-10 -1.1289e-10 -3.66881e-10 -4.54221e-10 -6.14476e-10 -7.52036e-10 -8.08772e-10 
</DataArray>
<DataArray Name="Strain_33" format="ascii" type="Float64">
1 1 1 1 1 1 1 1 1 1 1 1 1 1 1 1 1 1 1 1 1 1 1 1 1 1 1 1 1 1 1 1 1 1 1 1 1 1 1 1 1 1 1 1 1 1 1 1 1 1 1 1 1 1 1 1 1 1 1 1 1 1 1 1 1 1 1 1 1 1 1 1 1 1 1 1 1 1 1 1 1 1 1 1 1 1 1 1 1 1 1 1 1 1 1 1 1 1 1 1 
</DataArray>
<DataArray Name="Stress_11" format="ascii" type="Float64">
3.48011e+10 3.48011e+10 3.48011e+10 3.48011e+10 3.48011e+10 5.1828e+10 5.1828e+10 5.1828e+10 5.1828e+10 5.1828e+10 3.48011e+10 3.48011e+10 3.48011e+10 3.48011e+10 3.48011e+10 5.1828e+10 5.1828e+10 5.1828e+10 5.1828e+10 5.1828e+10 3.48011e+10 3.48011e+10 3.48011e+10 3.48011e+10 3.48011e+10 5.1828e+10 5.1828e+10 5.1828e+10 5.1828e+10 5.1828e+10 3.48011e+10 3.48011e+10 3.48011e+10 3.48011e+10 3.48011e+10 5.1828e+10 5.1828e+10 5.1828e+10 5.1828e+10 5.1828e+10 3.48011e+10 3.48011e+10 3.48011e+10 3.48011e+10 3.48011e+10 5.1828e+10 5.1828e+10 5.1828e+10 5.1828e+10 5.1828e+10 1.47913e+10 1.47913e+10 1.47913e+10 1.47913e+10 1.47913e+10 34.8011 34.8011 34.8011 34.8011 34.8011 1.47913e+10 1.47913e+10 1.47913e+10 1.47913e+10 1.47913e+10 34.8011 34.8011 34.8011 34.8011 34.8011 1.47913e+10 1.47913e+10 1.47913e+10 1.47913e+10 1.47913e+10 34.8011 34.8011 34.8011 34.8011 34.8011 1.47913e+10 1.47913e+10 1.47913e+10 1.47913e+10 1.47913e+10 34.8011 34.8011 34.8011 34.8011 34.8011 1.47913e+10 1.47913e+10 1.47913e+10 1.47913e+10 1.47913e+10 34.8011 34.8011 34.8011 34.8011 34.8011 
</DataArray>
<DataArray Name="Stress_22" format="ascii" type="Float64">
3.48011e+10 3.48011e+10 3.48011e+10 3.48011e+10 3.48011e+10 3.92473e+10 3.92473e+10 3.92473e+10 3.92473e+10 3.92473e+10 3.48011e+10 3.48011e+10 3.48011e+10 3.48011e+10 3.48011e+10 3.92473e+10 3.92473e+10 3.92473e+10 3.92473e+10 3.92473e+10 3.48011e+10 3.48011e+10 3.48011e+10 3.48011e+10 3.48011e+10 3.92473e+10 3.92473e+10 3.92473e+10 3.92473e+10 3.92473e+10 3.48011e+10 3.48011e+10 3.48011e+10 3.48011e+10 3.48011e+10 3.92473e+10 3.92473e+10 3.92473e+10 3.92473e+10 3.92473e+10 3.48011e+10 3.48011e+10 3.48011e+10 3.48011e+10 3.48011e+10 3.92473e+10 3.92473e+10 3.92473e+10 3.92473e+10 3.92473e+10 5.78478e+09 5.78478e+09 5.78478e+09 5.78478e+09 5.78478e+09 34.8011 34.8011 34.8011 34.8011 34.8011 5.78478e+09 5.78478e+09 5.78478e+09 5.78478e+09 5.78478e+09 34.8011 34.8011 34.8011 34.8011 34.8011 5.78478e+09 5.78478e+09 5.78478e+09 5.78478e+09 5.78478e+09 34.8011 34.8011 34.8011 34.8011 34.8011 5.78478e+09 5.78478e+09 5.78478e+09 5.78478e+09 5.78478e+09 34.8011 34.8011 34.8011 34.8011 34.8011 5.78478e+09 5.78478e+09 5.78478e+09 5.78478e+09 5.78478e+09 34.8011 34.8011 34.8011 34.8011 34.8011 
</DataArray>
<DataArray Name="Stress_12" format="ascii" type="Float64">
-0.703208 -2.24509 -3.49006 -4.30438 1.12082 8.02381 2.56261 0.24245 -0.673809 -0.533136 -1.63183 -3.40976 -4.19471 -2.44989 3.33953 5.30166 3.32285 0.626933 -0.540866 -0.363919 -1.13387 -1.57089 -0.847757 0.342089 1.66061 1.3548 0.229937 -0.143221 0.00387669 0.10443 -0.175664 1.30638 3.06957 2.98971 -0.343937 -3.85174 -3.42455 -0.705719 0.570544 0.565414 1.45875 3.28078 4.18926 4.93252 -1.18895 -10.8285 -2.69084 -0.0204432 0.640254 0.22721 2.70361 2.50494 1.53587 -0.452563 -4.27546 -1.05124e-07 -3.68021e-08 4.24781e-09 4.95034e-08 9.50188e-08 0.889324 1.08795 0.513032 -0.421655 -0.0522616 -6.12666e-08 -3.04802e-08 2.60752e-09 2.73617e-08 1.21941e-08 0.600244 0.592494 0.41778 0.235417 0.170458 -3.95068e-08 -2.84068e-08 -1.13687e-08 -3.66189e-09 -4.52168e-09 0.65423 0.558748 0.416486 0.24573 0.141198 -2.74671e-08 -2.69565e-08 -1.84952e-08 -1.27572e-08 -7.13798e-09 0.70527 0.586071 0.40692 0.224192 0.0939403 -1.93019e-08 -1.42759e-08 -1.0292e-08 -7.23594e-09 -2.9344e-09 
</DataArray>
<DataArray Name="Stress_13" format="ascii" type="Float64">
18.8899 25.6355 27.8213 27.4068 23.7041 9.30531 8.29839 7.47244 6.34189 4.33471 20.5482 22.4677 23.1996 23.1867 22.5998 7.00051 6.73764 6.36826 5.75073 4.78597 24.0468 20.749 18.851 19.4789 22.4321 4.67099 5.25276 5.58216 5.66447 5.6883 27.1106 17.5019 12.2661 11.9584 21.3373 2.53707 4.42393 4.94925 5.61944 6.59886 24.9856 10.4208 1.58531 -2.41662 2.13276 4.9574 3.75856 4.09917 5.09475 7.06344 3.29861e+10 3.29861e+10 3.29861e+10 3.29861e+10 3.29861e+10 8.48212e-08 3.80828e-08 3.0327e-08 3.14162e-08 3.90992e-08 3.29861e+10 3.29861e+10 3.29861e+10 3.29861e+10 3.29861e+10 1.1687e-07 7.13935e-08 5.35781e-08 4.87936e-08 5.04877e-08 3.29861e+10 3.29861e+10 3.29861e+10 3.29861e+10 3.29861e+10 9.88484e-08 8.18495e-08 6.67711e-08 5.99916e-08 5.86776e-08 3.29861e+10 3.29861e+10 3.29861e+10 3.29861e+10 3.29861e+10 9.42761e-08 8.184e-08 7.12184e-08 6.55037e-08 6.49023e-08 3.29861e+10 3.29861e+10 3.29861e+10 3.29861e+10 3.29861e+10 9.316e-08 7.90042e-08 6.95927e-08 6.51946e-08 6.76816e-08 
</DataArray>
<DataArray Name="Stress_23" format="ascii" type="Float64">
26.7172 24.3069 19.2998 14.0184 10.263 0.755332 -0.791219 -1.95811 -2.891 -3.27951 20.601 21.5017 18.7192 15.1589 13.5899 1.48374 -0.191018 -1.24492 -1.72482 -1.4529 21.2986 22.1779 18.8931 14.397 12.0906 1.24019 -0.263712 -1.10229 -1.34934 -0.941206 28.3605 27.298 20.7508 11.1414 4.83249 -0.124172 -1.08923 -1.46877 -1.78667 -1.47353 44.8016 36.6581 25.4435 9.99712 -17.2735 -3.64548 -1.21796 -2.10129 -2.92904 -3.29227 22.6448 15.968 7.6552 -4.54885 -24.3061 -1.58516e-07 -8.86087e-08 -5.11782e-08 -2.68077e-08 -9.7144e-09 13.8681 9.54542 3.66699 -2.82528 -6.84224 -5.92942e-08 -6.38418e-08 -4.47104e-08 -2.84524e-08 -1.67799e-08 10.6605 7.19477 3.45816 -0.180365 -3.72008 -3.56361e-08 -3.86542e-08 -3.41367e-08 -2.60038e-08 -1.82885e-08 9.26051 6.34065 3.48953 0.615523 -2.29319 -2.28025e-08 -2.43662e-08 -2.44457e-08 -2.26191e-08 -1.85975e-08 7.48074 5.34096 3.48194 1.62683 -0.51745 -1.00319e-08 -1.24201e-08 -1.68021e-08 -2.05635e-08 -2.21149e-08 
</DataArray>
<DataArray Name="Stress_33" format="ascii" type="Float64">
8.94886e+10 8.94886e+10 8.94886e+10 8.94886e+10 8.94886e+10 1.29892e+11 1.29892e+11 1.29892e+11 1.29892e+11 1.29892e+11 8.94886e+10 8.94886e+10 8.94886e+10 8.94886e+10 8.94886e+10 1.29892e+11 1.29892e+11 1.29892e+11 1.29892e+11 1.29892e+11 8.94886e+10 8.94886e+10 8.94886e+10 8.94886e+10 8.94886e+10 1.29892e+11 1.29892e+11 1.29892e+11 1.29892e+11 1.29892e+11 8.94886e+10 8.94886e+10 8.94886e+10 8.94886e+10 8.94886e+10 1.29892e+11 1.29892e+11 1.29892e+11 1.29892e+11 1.29892e+11 8.94886e+10 8.94886e+10 8.94886e+10 8.94886e+10 8.94886e+10 1.29892e+11 1.29892e+11 1.29892e+11 1.29892e+11 1.29892e+11 1.24599e+11 1.24599e+11 1.24599e+11 1.24599e+11 1.24599e+11 89.4886 89.4886 89.4886 89.4886 89.4886 1.24599e+11 1.24599e+11 1.24599e+11 1.24599e+11 1.24599e+11 89.4886 89.4886 89.4886 89.4886 89.4886 1.24599e+11 1.24599e+11 1.24599e+11 1.24599e+11 1.24599e+11 89.4886 89.4886 89.4886 89.4886 89.4886 1.24599e+11 1.24599e+11 1.24599e+11 1.24599e+11 1.24599e+11 89.4886 89.4886 89.4886 89.4886 89.4886 1.24599e+11 1.24599e+11 1.24599e+11 1.24599e+11 1.24599e+11 89.4886 89.4886 89.4886 89.4886 89.4886 
</DataArray>
</CellData>
<Points>
<DataArray NumberOfComponents="3" format="ascii" type="Float64">
-0.05 -0.05 0 -0.04 -0.05 0 -0.03 -0.05 0 -0.02 -0.05 0 -0.01 -0.05 0 0 -0.05 0 0.01 -0.05 0 0.02 -0.05 0 0.03 -0.05 0 0.04 -0.05 0 0.05 -0.05 0 -0.05 -0.04 0 -0.04 -0.04 0 -0.03 -0.04 0 -0.02 -0.04 0 -0.01 -0.04 0 0 -0.04 0 0.01 -0.04 0 0.02 -0.04 0 0.03 -0.04 0 0.04 -0.04 0 0.05 -0.04 0 -0.05 -0.03 0 -0.04 -0.03 0 -0.03 -0.03 0 -0.02 -0.03 0 -0.01 -0.03 0 0 -0.03 0 0.01 -0.03 0 0.02 -0.03 0 0.03 -0.03 0 0.04 -0.03 0 0.05 -0.03 0 -0.05 -0.02 0 -0.04 -0.02 0 -0.03 -0.02 0 -0.02 -0.02 0 -0.01 -0.02 0 0 -0.02 0 0.01 -0.02 0 0.02 -0.02 0 0.03 -0.02 0 0.04 -0.02 0 0.05 -0.02 0 -0.05 -0.01 0 -0.04 -0.01 0 -0.03 -0.01 0 -0.02 -0.01 0 -0.01 -0.01 0 0 -0.01 0 0.01 -0.01 0 0.02 -0.01 0 0.03 -0.01 0 0.04 -0.01 0 0.05 -0.01 0 -0.05 0 0 -0.04 0 0 -0.03 0 0 -0.02 0 0 -0.01 0 0 0 0 0 0.01 0 0 0.02 0 0 0.03 0 0 0.04 0 0 0.05 0 0 -0.05 0.01 0 -0.04 0.01 0 -0.03 0.01 0 -0.02 0.01 0 -0.01 0.01 0 0 0.01 0 0.01 0.01 0 0.02 0.01 0 0.03 0.01 0 0.04 0.01 0 0.05 0.01 0 -0.05 0.02 0 -0.04 0.02 0 -0.03 0.02 0 -0.02 0.02 0 -0.01 0.02 0 0 0.02 0 0.01 0.02 0 0.02 0.02 0 0.03 0.02 0 0.04 0.02 0 0.05 0.02 0 -0.05 0.03 0 -0.04 0.03 0 -0.03 0.03 0 -0.02 0.03 0 -0.01 0.03 0 0 0.03 0 0.01 0.03 0 0.02 0.03 0 0.03 0.03 0 0.04 0.03 0 0.05 0.03 0 -0.05 0.04 0 -0.04 0.04 0 -0.03 0.04 0 -0.02 0.04 0 -0.01 0.04 0 0 0.04 0 0.01 0.04 0 0.02 0.04 0 0.03 0.04 0 0.04 0.04 0 0.05 0.04 0 -0.05 0.05 0 -0.04 0.05 0 -0.03 0.05 0 -0.02 0.05 0 -0.01 0.05 0 0 0.05 0 0.01 0.05 0 0.02 0.05 0 0.03 0.05 0 0.04 0.05 0 0.05 0.05 0 
</DataArray>
</Points>
<Cells>
<DataArray Name="connectivity" format="ascii" type="Int64">
0 1 12 11 1 2 13 12 2 3 14 13 3 4 15 14 4 5 16 15 5 6 17 16 6 7 18 17 7 8 19 18 8 9 20 19 9 10 21 20 11 12 23 22 12 13 24 23 13 14 25 24 14 15 26 25 15 16 27 26 16 17 28 27 17 18 29 28 18 19 30 29 19 20 31 30 20 21 32 31 22 23 34 33 23 24 35 34 24 25 36 35 25 26 37 36 26 27 38 37 27 28 39 38 28 29 40 39 29 30 41 40 30 31 42 41 31 32 43 42 33 34 45 44 34 35 46 45 35 36 47 46 36 37 48 47 37 38 49 48 38 39 50 49 39 40 51 50 40 41 52 51 41 42 53 52 42 43 54 53 44 45 56 55 45 46 57 56 46 47 58 57 47 48 59 58 48 49 60 59 49 50 61 60 50 51 62 61 51 52 63 62 52 53 64 63 53 54 65 64 55 56 67 66 56 57 68 67 57 58 69 68 58 59 70 69 59 60 71 70 60 61 72 71 61 62 73 72 62 63 74 73 63 64 75 74 64 65 76 75 66 67 78 77 67 68 79 78 68 69 80 79 69 70 81 80 70 71 82 81 71 72 83 82 72 73 84 83 73 74 85 84 74 75 86 85 75 76 87 86 77 78 89 88 78 79 90 89 79 80 91 90 80 81 92 91 81 82 93 92 82 83 94 93 83 84 95 94 84 85 96 95 85 86 97 96 86 87 98 97 88 89 100 99 89 90 101 100 90 91 102 101 91 92 103 102 92 93 104 103 93 94 105 104 94 95 106 105 95 96 107 106 96 97 108 107 97 98 109 108 99 100 111 110 100 101 112 111 101 102 113 112 102 103 114 113 103 104 115 114 104 105 116 115 105 106 117 116 106 107 118 117 107 108 119 118 108 109 120 119 
</DataArray>
<DataArray Name="offsets" format="ascii" type="Int64">
4 8 12 16 20 24 28 32 36 40 44 48 52 56 60 64 68 72 76 80 84 88 92 96 100 104 108 112 116 120 124 128 132 136 140 144 148 152 156 160 164 168 172 176 180 184 188 192 196 200 204 208 212 216 220 224 228 232 236 240 244 248 252 256 260 264 268 272 276 280 284 288 292 296 300 304 308 312 316 320 324 328 332 336 340 344 348 352 356 360 364 368 372 376 380 384 388 392 396 400 
</DataArray>
<DataArray Name="types" format="ascii" type="Int8">
9 9 9 9 9 9 9 9 9 9 9 9 9 9 9 9 9 9 9 9 9 9 9 9 9 9 9 9 9 9 9 9 9 9 9 9 9 9 9 9 9 9 9 9 9 9 9 9 9 9 9 9 9 9 9 9 9 9 9 9 9 9 9 9 9 9 9 9 9 9 9 9 9 9 9 9 9 9 9 9 9 9 9 9 9 9 9 9 9 9 9 9 9 9 9 9 9 9 9 9 
</DataArray>
</Cells>
</Piece>
</UnstructuredGrid>
</VTKFile>
