<?xml version="1.0"?>
<VTKFile byte_order="LittleEndian" type="UnstructuredGrid" version="0.1">
<UnstructuredGrid>
<Piece NumberOfCells="100" NumberOfPoints="121">
<PointData>
<DataArray Name="Warping_X" format="ascii" type="Float64">
-2.56873e-09 -2.07584e-09 -1.61582e-09 -1.19588e-09 -8.28663e-10 -5.25291e-10 8.51936e-10 1.96923e-09 2.9314e-09 3.75703e-09 4.49408e-09 -2.06232e-09 -1.66677e-09 -1.29873e-09 -9.55887e-10 -6.29052e-10 -3.45342e-10 6.84829e-10 1.36364e-09 1.90974e-09 2.3627e-09 2.73385e-09 -1.52911e-09 -1.22879e-09 -9.53076e-10 -6.98909e-10 -4.72859e-10 -2.97677e-10 3.42662e-10 7.37921e-10 9.75375e-10 1.12447e-09 1.2022e-09 -9.69697e-10 -7.67005e-10 -5.89282e-10 -4.38904e-10 -3.23184e-10 -2.48159e-10 -7.33118e-12 9.12437e-11 8.01367e-11 -2.12617e-11 -2.09549e-10 -3.81049e-10 -2.7767e-10 -2.01579e-10 -1.56873e-10 -1.48676e-10 -1.71558e-10 -3.21933e-10 -4.93313e-10 -7.51329e-10 -1.10138e-09 -1.53752e-09 2.4749e-10 2.51053e-10 2.24086e-10 1.59392e-10 6.05306e-11 -5.73931e-11 -5.07722e-10 -9.42628e-10 -1.46116e-09 -2.09196e-09 -2.84661e-09 8.60034e-10 7.52528e-10 6.54682e-10 5.28672e-10 3.57551e-10 1.09757e-10 -3.66131e-10 -9.23379e-10 -1.49814e-09 -2.03847e-09 -2.29108e-09 1.56437e-09 1.35496e-09 1.13637e-09 8.96069e-10 6.13046e-10 2.81124e-10 -2.45465e-10 -8.25359e-10 -1.3987e-09 -1.87972e-09 -2.31523e-09 2.33133e-09 2.01368e-09 1.66674e-09 1.2899e-09 8.81624e-10 4.39991e-10 -1.30978e-10 -7.4286e-10 -1.34234e-09 -1.90011e-09 -2.44164e-09 3.17547e-09 2.74062e-09 2.24488e-09 1.70495e-09 1.14743e-09 5.89193e-10 -5.18891e-11 -7.28673e-10 -1.38434e-09 -2.02188e-09 -2.66567e-09 4.14053e-09 3.55172e-09 2.86957e-09 2.1406e-09 1.39688e-09 6.84716e-10 -9.81413e-11 -8.08253e-10 -1.4957e-09 -2.1893e-09 -2.91702e-09 
</DataArray>
<DataArray Name="Warping_Y" format="ascii" type="Float64">
2.01171e-10 -2.39868e-10 -5.82154e-10 -8.31921e-10 -1.00342e-09 -1.27407e-09 -1.90574e-09 -1.49029e-09 -5.67029e-10 7.39043e-10 2.39777e-09 6.58432e-10 1.88709e-10 -1.82415e-10 -4.58464e-10 -6.64364e-10 -8.19762e-10 -8.53347e-10 -4.47506e-10 4.07907e-10 1.60989e-09 3.11358e-09 1.01796e-09 5.18905e-10 1.15581e-10 -1.93805e-10 -4.11845e-10 -5.05124e-10 -2.38256e-10 2.5888e-10 1.03676e-09 2.11819e-09 3.47301e-09 1.28204e-09 7.51937e-10 3.15446e-10 -2.08502e-11 -2.46517e-10 -3.29792e-10 2.2064e-11 5.26676e-10 1.23108e-09 2.19378e-09 3.43284e-09 1.45521e-09 8.89856e-10 4.20972e-10 6.07148e-11 -1.81122e-10 -2.88866e-10 -4.33153e-11 3.51122e-10 9.56448e-10 1.80394e-09 2.94994e-09 1.53996e-09 9.32174e-10 4.32725e-10 4.658e-11 -2.14113e-10 -3.77085e-10 -5.15037e-10 -2.6302e-10 2.32106e-10 9.80358e-10 2.02418e-09 1.59917e-09 8.54984e-10 2.95012e-10 -1.19056e-10 -3.89522e-10 -4.60226e-10 -5.04663e-10 -2.94585e-10 1.37637e-10 7.36183e-10 1.01948e-09 1.51698e-09 6.74994e-10 4.58083e-11 -4.0011e-10 -6.62148e-10 -7.13358e-10 -6.76961e-10 -4.79957e-10 -1.44538e-10 2.06626e-10 3.94734e-10 1.29639e-09 3.91199e-10 -2.94675e-10 -7.73818e-10 -1.04723e-09 -1.10208e-09 -1.01274e-09 -8.28549e-10 -5.87699e-10 -3.47391e-10 -1.49203e-10 9.52311e-10 5.73158e-12 -7.16307e-10 -1.22941e-09 -1.53394e-09 -1.61444e-09 -1.4762e-09 -1.30373e-09 -1.12824e-09 -9.47786e-10 -7.4225e-10 4.99989e-10 -4.64019e-10 -1.19992e-09 -1.74675e-09 -2.10474e-09 -2.23561e-09 -2.01397e-09 -1.89489e-09 -1.76621e-09 -1.62483e-09 -1.4343e-09 
</DataArray>
<DataArray Name="Warping_Z" format="ascii" type="Float64">
0 0 0 0 0 0 0 0 0 0 0 0 0 0 0 0 0 0 0 0 0 0 0 0 0 0 0 0 0 0 0 0 0 0 0 0 0 0 0 0 0 0 0 0 0 0 0 0 0 0 0 0 0 0 0 0 0 0 0 0 0 0 0 0 0 0 0 0 0 0 0 0 0 0 0 0 0 0 0 0 0 0 0 0 0 0 0 0 0 0 0 0 0 0 0 0 0 0 0 0 0 0 0 0 0 0 0 0 0 0 0 0 0 0 0 0 0 0 0 0 0 
</DataArray>
</PointData>
<CellData>
<DataArray Name="MaterialId" format="ascii" type="Float64">
1 1 1 1 1 2 2 2 2 2 1 1 1 1 1 2 2 2 2 2 1 1 1 1 1 2 2 2 2 2 1 1 1 1 1 2 2 2 2 2 1 1 1 1 1 2 2 2 2 2 3 3 3 3 3 4 4 4 4 4 3 3 3 3 3 4 4 4 4 4 3 3 3 3 3 4 4 4 4 4 3 3 3 3 3 4 4 4 4 4 3 3 3 3 3 4 4 4 4 4 
</DataArray>
<DataArray Name="FiberAngle" format="ascii" type="Float64">
0 0 0 0 0 0 0 0 0 0 0 0 0 0 0 0 0 0 0 0 0 0 0 0 0 0 0 0 0 0 0 0 0 0 0 0 0 0 0 0 0 0 0 0 0 0 0 0 0 0 17 17 17 17 17 0 0 0 0 0 17 17 17 17 17 0 0 0 0 0 17 17 17 17 17 0 0 0 0 0 17 17 17 17 17 0 0 0 0 0 17 17 17 17 17 0 0 0 0 0 
</DataArray>
<DataArray Name="Strain_11" format="ascii" type="Float64">
4.44219e-08 4.14034e-08 3.8139e-08 3.47026e-08 2.93541e-08 1.2037e-07 8.9805e-08 7.54136e-08 6.39295e-08 5.54101e-08 3.47934e-08 3.21883e-08 2.98503e-08 2.76442e-08 2.29446e-08 8.35255e-08 5.37033e-08 3.91777e-08 3.0103e-08 2.24438e-08 2.51507e-08 2.2672e-08 2.02273e-08 1.70885e-08 1.25104e-08 4.40583e-08 2.46917e-08 1.13173e-08 2.38468e-09 -5.5279e-09 1.53036e-08 1.26907e-08 9.75419e-09 6.19584e-09 2.60717e-09 4.52261e-09 -3.64026e-09 -1.34561e-08 -2.25726e-08 -3.12211e-08 5.34717e-09 2.45616e-09 -9.99401e-10 -4.53324e-09 -7.04028e-09 -3.00352e-08 -3.03143e-08 -3.88273e-08 -4.90426e-08 -5.95392e-08 -5.19713e-09 -6.24067e-09 -9.53519e-09 -1.34991e-08 -1.82858e-08 -4.63109e-08 -4.96077e-08 -5.46647e-08 -5.85564e-08 -5.03627e-08 -1.58455e-08 -1.5822e-08 -1.83155e-08 -2.27072e-08 -2.89857e-08 -5.01239e-08 -5.68571e-08 -5.74051e-08 -5.10673e-08 -3.44061e-08 -2.63531e-08 -2.82766e-08 -3.08569e-08 -3.4565e-08 -3.86777e-08 -5.48779e-08 -5.95888e-08 -5.86408e-08 -5.19396e-08 -4.88524e-08 -3.76253e-08 -4.21341e-08 -4.58384e-08 -4.82899e-08 -4.99933e-08 -6.06026e-08 -6.44333e-08 -6.27571e-08 -5.97659e-08 -5.92661e-08 -5.11831e-08 -5.88948e-08 -6.34449e-08 -6.50622e-08 -6.35197e-08 -7.1197e-08 -6.93448e-08 -6.71558e-08 -6.65572e-08 -6.85753e-08 
</DataArray>
<DataArray Name="Strain_22" format="ascii" type="Float64">
4.42919e-08 4.14158e-08 3.86598e-08 3.56256e-08 3.96682e-08 7.5335e-08 1.04759e-07 1.00886e-07 9.22892e-08 7.9333e-08 3.4486e-08 3.14096e-08 2.81327e-08 2.58589e-08 2.83579e-08 4.64864e-08 6.60739e-08 6.67619e-08 5.68574e-08 4.33865e-08 2.48557e-08 2.16449e-08 1.8641e-08 1.69141e-08 1.7033e-08 2.17826e-08 2.64058e-08 2.31057e-08 1.34956e-08 1.77097e-09 1.55548e-08 1.21723e-08 9.35452e-09 7.34802e-09 5.31603e-09 -1.22271e-09 -1.20467e-08 -2.25091e-08 -3.32237e-08 -4.36372e-08 6.35296e-09 2.70352e-09 -1.19106e-10 -2.35632e-09 -6.06048e-09 -2.7997e-08 -5.42932e-08 -6.69242e-08 -7.7396e-08 -8.74669e-08 -8.98915e-10 -1.07451e-08 -1.51674e-08 -1.70523e-08 -1.29275e-08 -3.63838e-09 -1.05956e-09 -6.30167e-09 -1.69322e-08 -6.24436e-08 -1.31087e-08 -2.14597e-08 -2.65129e-08 -2.7684e-08 -2.62879e-08 -2.12715e-08 -1.78835e-08 -2.33773e-08 -4.05866e-08 -5.77151e-08 -2.52194e-08 -3.12139e-08 -3.57095e-08 -3.79395e-08 -3.869e-08 -3.6225e-08 -3.42187e-08 -3.95877e-08 -4.98589e-08 -5.48977e-08 -3.64773e-08 -4.0355e-08 -4.38611e-08 -4.71147e-08 -4.99534e-08 -4.87908e-08 -4.69319e-08 -5.07865e-08 -5.7047e-08 -5.96721e-08 -4.61036e-08 -4.76683e-08 -5.00478e-08 -5.4407e-08 -5.95988e-08 -5.79475e-08 -5.64466e-08 -6.14561e-08 -6.57504e-08 -6.84547e-08 
</DataArray>
<DataArray Name="Strain_12" format="ascii" type="Float64">
2.35591e-10 6.37577e-10 1.56373e-09 3.1103e-09 -2.32444e-09 -3.26205e-08 2.42918e-09 7.57063e-09 4.60338e-09 3.9279e-10 1.20806e-10 4.59257e-10 8.59652e-10 -5.38506e-10 -2.24094e-09 -3.06101e-09 -3.24517e-09 3.66079e-09 5.54097e-09 4.43107e-09 -3.97568e-10 -7.11643e-10 -1.09417e-09 -1.7013e-09 1.13203e-09 1.59125e-08 2.53893e-10 -2.98194e-09 1.58395e-10 1.82016e-09 -8.73881e-10 -1.41681e-09 -1.34101e-09 -5.48294e-10 3.00446e-09 1.79702e-08 -5.49841e-12 -5.31488e-09 -5.06961e-09 -1.15155e-09 -7.93917e-10 -6.97314e-10 -2.23564e-10 1.14713e-09 2.63282e-09 1.79879e-09 5.67587e-10 -2.93461e-09 -5.23314e-09 -5.49247e-09 -1.18973e-08 -6.36757e-09 -1.69058e-11 6.75699e-09 1.15248e-08 6.31756e-09 3.11467e-08 4.54806e-08 6.8165e-08 9.68067e-08 -1.39701e-08 -5.25173e-09 -5.45096e-10 4.51947e-09 1.52475e-08 1.41997e-08 3.12885e-08 4.82553e-08 6.03955e-08 3.03002e-08 -1.60752e-08 -6.29901e-09 -4.3194e-11 6.34787e-09 1.60696e-08 1.99542e-08 2.89092e-08 3.57564e-08 3.13718e-08 1.19746e-08 -1.40344e-08 -5.14119e-09 4.7339e-11 5.14538e-09 1.39829e-08 2.27934e-08 2.24965e-08 1.94263e-08 1.28496e-08 2.8961e-09 -6.72133e-09 -1.10801e-09 2.06828e-11 1.129e-09 6.67965e-09 2.04579e-08 8.28532e-09 5.66154e-09 2.15236e-09 -1.13486e-09 
</DataArray>
<DataArray Name="Strain_13" format="ascii" type="Float64">
2.44276e-08 3.31463e-08 3.61369e-08 3.55249e-08 3.05984e-08 5.39344e-08 4.7783e-08 4.26703e-08 3.61177e-08 2.50845e-08 2.65293e-08 3.00009e-08 3.14737e-08 3.12496e-08 2.95893e-08 4.18852e-08 3.93915e-08 3.66129e-08 3.28167e-08 2.73961e-08 3.10075e-08 2.91701e-08 2.81159e-08 2.84451e-08 3.01125e-08 2.95564e-08 3.09934e-08 3.17723e-08 3.19675e-08 3.2024e-08 3.52235e-08 2.76675e-08 2.33427e-08 2.35773e-08 3.00995e-08 1.78918e-08 2.41433e-08 2.72952e-08 3.12161e-08 3.66715e-08 3.78939e-08 2.21618e-08 1.44248e-08 1.3179e-08 2.08988e-08 1.69231e-08 1.78796e-08 2.18401e-08 2.80727e-08 3.90147e-08 1.7534e-08 -4.84498e-09 -1.91918e-08 -2.95975e-08 -3.95965e-08 4.5572e-08 3.30907e-08 3.30048e-08 3.71179e-08 4.69657e-08 -3.50488e-08 -5.7139e-08 -7.72587e-08 -9.70419e-08 -1.1979e-07 7.97207e-08 6.6541e-08 5.94075e-08 5.7691e-08 6.03844e-08 -9.6814e-08 -1.16127e-07 -1.36445e-07 -1.57773e-07 -1.79305e-07 1.07008e-07 9.37816e-08 8.07424e-08 7.32904e-08 7.06152e-08 -1.56634e-07 -1.71395e-07 -1.89729e-07 -2.12797e-07 -2.39591e-07 1.45018e-07 1.16565e-07 9.52502e-08 8.34126e-08 7.88199e-08 -2.07951e-07 -2.11107e-07 -2.26444e-07 -2.52559e-07 -2.90831e-07 1.82258e-07 1.28375e-07 1.00084e-07 8.57507e-08 8.27479e-08 
</DataArray>
<DataArray Name="Strain_23" format="ascii" type="Float64">
3.26259e-08 3.00029e-08 2.44894e-08 1.86738e-08 1.4529e-08 7.53362e-09 -2.23831e-09 -9.69145e-09 -1.56798e-08 -1.81927e-08 2.43422e-08 2.59215e-08 2.36264e-08 2.05035e-08 1.93639e-08 1.3301e-08 2.63233e-09 -4.36349e-09 -7.73357e-09 -6.21009e-09 2.33474e-08 2.54156e-08 2.3522e-08 2.04825e-08 1.93408e-08 1.3598e-08 3.53978e-09 -2.70314e-09 -5.02282e-09 -2.76752e-09 2.85522e-08 2.91975e-08 2.48153e-08 1.82138e-08 1.44747e-08 8.53994e-09 8.35241e-11 -5.00071e-09 -7.90954e-09 -6.2688e-09 4.16432e-08 3.81627e-08 2.81214e-08 1.54067e-08 -4.53252e-10 -4.68791e-09 -3.46391e-09 -1.00985e-08 -1.57881e-08 -1.8229e-08 1.33471e-07 8.95846e-08 3.90026e-08 -2.46758e-08 -1.12088e-07 -1.39699e-07 -9.70633e-08 -6.4053e-08 -3.81536e-08 -1.87164e-08 1.46497e-07 8.55066e-08 2.57276e-08 -3.61053e-08 -9.63317e-08 -1.14765e-07 -8.9802e-08 -6.29594e-08 -4.1883e-08 -2.73283e-08 1.43144e-07 8.33818e-08 2.49862e-08 -3.30989e-08 -9.31191e-08 -1.06913e-07 -7.73479e-08 -5.5615e-08 -3.97571e-08 -2.84816e-08 1.30559e-07 7.52335e-08 2.50777e-08 -2.51434e-08 -8.04321e-08 -8.8914e-08 -5.76863e-08 -4.21282e-08 -3.33561e-08 -2.63047e-08 8.70321e-08 5.13272e-08 2.50548e-08 -1.20275e-09 -3.6917e-08 -4.24348e-08 -2.46118e-08 -2.35257e-08 -2.51258e-08 -2.59111e-08 
</DataArray>
<DataArray Name="Strain_33" format="ascii" type="Float64">
-0.045 -0.045 -0.045 -0.045 -0.045 -0.045 -0.045 -0.045 -0.045 -0.045 -0.035 -0.035 -0.035 -0.035 -0.035 -0.035 -0.035 -0.035 -0.035 -0.035 -0.025 -0.025 -0.025 -0.025 -0.025 -0.025 -0.025 -0.025 -0.025 -0.025 -0.015 -0.015 -0.015 -0.015 -0.015 -0.015 -0.015 -0.015 -0.015 -0.015 -0.005 -0.005 -0.005 -0.005 -0.005 -0.005 -0.005 -0.005 -0.005 -0.005 0.005 0.005 0.005 0.005 0.005 0.005 0.005 0.005 0.005 0.005 0.015 0.015 0.015 0.015 0.015 0.015 0.015 0.015 0.015 0.015 0.025 0.025 0.025 0.025 0.025 0.025 0.025 0.025 0.025 0.025 0.035 0.035 0.035 0.035 0.035 0.035 0.035 0.035 0.035 0.035 0.045 0.045 0.045 0.045 0.045 0.045 0.045 0.045 0.045 0.045 
</DataArray>
<DataArray Name="Stress_11" format="ascii" type="Float64">
-1.56605e+09 -1.56605e+09 -1.56605e+09 -1.56605e+09 -1.56605e+09 -2.33225e+09 -2.33225e+09 -2.33225e+09 -2.33225e+09 -2.33225e+09 -1.21804e+09 -1.21804e+09 -1.21804e+09 -1.21804e+09 -1.21804e+09 -1.81397e+09 -1.81398e+09 -1.81398e+09 -1.81398e+09 -1.81398e+09 -8.70025e+08 -8.70026e+08 -8.70026e+08 -8.70026e+08 -8.70027e+08 -1.2957e+09 -1.2957e+09 -1.2957e+09 -1.2957e+09 -1.2957e+09 -5.22015e+08 -5.22015e+08 -5.22016e+08 -5.22016e+08 -5.22017e+08 -7.77419e+08 -7.7742e+08 -7.7742e+08 -7.77421e+08 -7.77421e+08 -1.74005e+08 -1.74005e+08 -1.74006e+08 -1.74006e+08 -1.74007e+08 -2.59141e+08 -2.59142e+08 -2.59142e+08 -2.59143e+08 -2.59144e+08 7.39566e+07 7.39564e+07 7.39563e+07 7.39561e+07 7.39561e+07 0.174001 0.174001 0.174001 0.174 0.173999 2.21869e+08 2.21869e+08 2.21869e+08 2.21869e+08 2.21869e+08 0.522012 0.522011 0.522011 0.522011 0.522012 3.69782e+08 3.69782e+08 3.69782e+08 3.69782e+08 3.69781e+08 0.870022 0.870022 0.870022 0.870022 0.870022 5.17695e+08 5.17694e+08 5.17694e+08 5.17694e+08 5.17694e+08 1.21803 1.21803 1.21803 1.21803 1.21803 6.65607e+08 6.65607e+08 6.65607e+08 6.65607e+08 6.65607e+08 1.56604 1.56604 1.56604 1.56604 1.56604 
</DataArray>
<DataArray Name="Stress_22" format="ascii" type="Float64">
-1.56605e+09 -1.56605e+09 -1.56605e+09 -1.56605e+09 -1.56605e+09 -1.76613e+09 -1.76613e+09 -1.76613e+09 -1.76613e+09 -1.76613e+09 -1.21804e+09 -1.21804e+09 -1.21804e+09 -1.21804e+09 -1.21804e+09 -1.37365e+09 -1.37365e+09 -1.37365e+09 -1.37365e+09 -1.37365e+09 -8.70025e+08 -8.70026e+08 -8.70026e+08 -8.70026e+08 -8.70026e+08 -9.81181e+08 -9.81182e+08 -9.81182e+08 -9.81182e+08 -9.81183e+08 -5.22015e+08 -5.22016e+08 -5.22016e+08 -5.22016e+08 -5.22016e+08 -5.8871e+08 -5.8871e+08 -5.8871e+08 -5.88711e+08 -5.88711e+08 -1.74005e+08 -1.74005e+08 -1.74006e+08 -1.74006e+08 -1.74006e+08 -1.96238e+08 -1.96238e+08 -1.96239e+08 -1.96239e+08 -1.96239e+08 2.89238e+07 2.89237e+07 2.89236e+07 2.89236e+07 2.89236e+07 0.174004 0.174004 0.174003 0.174002 0.173998 8.67714e+07 8.67713e+07 8.67713e+07 8.67712e+07 8.67712e+07 0.522013 0.522013 0.522013 0.522012 0.522011 1.44619e+08 1.44619e+08 1.44619e+08 1.44619e+08 1.44619e+08 0.870023 0.870023 0.870023 0.870022 0.870022 2.02467e+08 2.02467e+08 2.02466e+08 2.02466e+08 2.02466e+08 1.21803 1.21803 1.21803 1.21803 1.21803 2.60314e+08 2.60314e+08 2.60314e+08 2.60314e+08 2.60314e+08 1.56604 1.56604 1.56604 1.56604 1.56604 
</DataArray>
<DataArray Name="Stress_12" format="ascii" type="Float64">
6.44194 17.4338 42.7584 85.0474 -63.559 -163.102 12.1459 37.8532 23.0169 1.96395 3.3033 12.5578 23.5061 -14.7248 -61.2758 -15.305 -16.2258 18.304 27.7049 22.1554 -10.871 -19.459 -29.9186 -46.52 30.9539 79.5623 1.26947 -14.9097 0.791977 9.10078 -23.8952 -38.741 -36.6682 -14.9924 82.1534 89.8512 -0.027492 -26.5744 -25.348 -5.75776 -21.7087 -19.0672 -6.1131 31.3669 71.9914 8.99393 2.83794 -14.6731 -26.1657 -27.4624 36.91 29.9037 21.7564 7.62762 -26.1339 1.72746e-07 8.5167e-07 1.24361e-06 1.86389e-06 2.64706e-06 37.6216 31.1616 12.6582 -5.85879 -5.5189 3.88272e-07 8.55547e-07 1.31948e-06 1.65144e-06 8.28523e-07 29.0714 26.6526 13.8351 1.62017 -1.11551 5.45623e-07 7.90486e-07 9.77717e-07 8.57825e-07 3.27432e-07 28.5049 25.7675 14.1734 2.25579 -0.637883 6.23257e-07 6.15141e-07 5.31189e-07 3.51356e-07 7.91903e-08 27.3547 25.1884 14.0761 2.90745 0.537209 5.59398e-07 2.26552e-07 1.54808e-07 5.88538e-08 -3.10313e-08 
</DataArray>
<DataArray Name="Stress_13" format="ascii" type="Float64">
667.943 906.346 988.119 971.386 836.676 323.606 286.698 256.022 216.706 150.507 725.412 820.339 860.611 854.482 809.084 251.311 236.349 219.677 196.9 164.377 847.863 797.622 768.794 777.796 823.39 177.338 185.96 190.634 191.805 192.144 963.143 756.535 638.278 644.693 823.036 107.351 144.86 163.771 187.297 220.029 1036.16 605.988 394.43 360.364 571.452 101.538 107.278 131.041 168.436 234.088 1.64931e+08 1.6493e+08 1.6493e+08 1.6493e+08 1.6493e+08 1.24611e-06 9.04825e-07 9.02477e-07 1.01494e-06 1.28422e-06 4.9479e+08 4.9479e+08 4.9479e+08 4.94789e+08 4.94789e+08 2.17987e-06 1.81948e-06 1.62443e-06 1.57749e-06 1.65114e-06 8.2465e+08 8.24649e+08 8.24649e+08 8.24649e+08 8.24648e+08 2.92601e-06 2.56435e-06 2.2078e-06 2.00404e-06 1.93089e-06 1.15451e+09 1.15451e+09 1.15451e+09 1.15451e+09 1.15451e+09 3.96535e-06 3.18732e-06 2.6045e-06 2.28082e-06 2.15524e-06 1.48437e+09 1.48437e+09 1.48437e+09 1.48437e+09 1.48437e+09 4.98364e-06 3.51027e-06 2.73668e-06 2.34475e-06 2.26264e-06 
</DataArray>
<DataArray Name="Stress_23" format="ascii" type="Float64">
892.117 820.393 669.633 510.613 397.278 37.6681 -11.1916 -48.4573 -78.399 -90.9636 665.608 708.792 646.036 560.643 529.482 66.5052 13.1617 -21.8174 -38.6679 -31.0505 638.407 694.958 643.181 560.071 528.852 67.9902 17.6989 -13.5157 -25.1141 -13.8376 780.727 798.37 678.544 498.034 395.794 42.6997 0.417621 -25.0035 -39.5477 -31.344 1138.68 1043.51 768.945 421.278 -12.3936 -23.4396 -17.3196 -50.4923 -78.9403 -91.1451 637.882 429.047 188.335 -115.382 -534.831 -3.81991e-06 -2.65408e-06 -1.75145e-06 -1.04326e-06 -5.11779e-07 699.629 409.978 123.935 -171.827 -456.663 -3.13811e-06 -2.45553e-06 -1.72155e-06 -1.14524e-06 -7.4726e-07 682.26 399.132 120.635 -156.286 -440.689 -2.92341e-06 -2.11499e-06 -1.52073e-06 -1.08711e-06 -7.78794e-07 622.625 360.431 121.128 -118.541 -380.59 -2.43125e-06 -1.57736e-06 -1.15195e-06 -9.12084e-07 -7.19271e-07 416.523 247.242 121.002 -5.17679 -174.538 -1.16033e-06 -6.7298e-07 -6.43281e-07 -6.87035e-07 -7.08509e-07 
</DataArray>
<DataArray Name="Stress_33" format="ascii" type="Float64">
-4.02699e+09 -4.02699e+09 -4.02699e+09 -4.02699e+09 -4.02699e+09 -5.84515e+09 -5.84515e+09 -5.84515e+09 -5.84515e+09 -5.84516e+09 -3.1321e+09 -3.1321e+09 -3.1321e+09 -3.1321e+09 -3.1321e+09 -4.54623e+09 -4.54623e+09 -4.54623e+09 -4.54623e+09 -4.54623e+09 -2.23721e+09 -2.23721e+09 -2.23721e+09 -2.23721e+09 -2.23721e+09 -3.24731e+09 -3.24731e+09 -3.24731e+09 -3.24731e+09 -3.24731e+09 -1.34233e+09 -1.34233e+09 -1.34233e+09 -1.34233e+09 -1.34233e+09 -1.94839e+09 -1.94839e+09 -1.94839e+09 -1.94839e+09 -1.94839e+09 -4.47443e+08 -4.47443e+08 -4.47443e+08 -4.47443e+08 -4.47444e+08 -6.49465e+08 -6.49466e+08 -6.49467e+08 -6.49468e+08 -6.49469e+08 6.22995e+08 6.22995e+08 6.22994e+08 6.22994e+08 6.22993e+08 0.447441 0.447441 0.447441 0.447441 0.447439 1.86898e+09 1.86898e+09 1.86898e+09 1.86898e+09 1.86898e+09 1.34233 1.34233 1.34233 1.34233 1.34233 3.11497e+09 3.11497e+09 3.11497e+09 3.11497e+09 3.11497e+09 2.23721 2.23721 2.23721 2.23721 2.23721 4.36096e+09 4.36096e+09 4.36096e+09 4.36096e+09 4.36096e+09 3.1321 3.1321 3.1321 3.1321 3.1321 5.60695e+09 5.60695e+09 5.60695e+09 5.60695e+09 5.60694e+09 4.02698 4.02698 4.02698 4.02698 4.02698 
</DataArray>
</CellData>
<Points>
<DataArray NumberOfComponents="3" format="ascii" type="Float64">
-0.05 -0.05 0 -0.04 -0.05 0 -0.03 -0.05 0 -0.02 -0.05 0 -0.01 -0.05 0 0 -0.05 0 0.01 -0.05 0 0.02 -0.05 0 0.03 -0.05 0 0.04 -0.05 0 0.05 -0.05 0 -0.05 -0.04 0 -0.04 -0.04 0 -0.03 -0.04 0 -0.02 -0.04 0 -0.01 -0.04 0 0 -0.04 0 0.01 -0.04 0 0.02 -0.04 0 0.03 -0.04 0 0.04 -0.04 0 0.05 -0.04 0 -0.05 -0.03 0 -0.04 -0.03 0 -0.03 -0.03 0 -0.02 -0.03 0 -0.01 -0.03 0 0 -0.03 0 0.01 -0.03 0 0.02 -0.03 0 0.03 -0.03 0 0.04 -0.03 0 0.05 -0.03 0 -0.05 -0.02 0 -0.04 -0.02 0 -0.03 -0.02 0 -0.02 -0.02 0 -0.01 -0.02 0 0 -0.02 0 0.01 -0.02 0 0.02 -0.02 0 0.03 -0.02 0 0.04 -0.02 0 0.05 -0.02 0 -0.05 -0.01 0 -0.04 -0.01 0 -0.03 -0.01 0 -0.02 -0.01 0 -0.01 -0.01 0 0 -0.01 0 0.01 -0.01 0 0.02 -0.01 0 0.03 -0.01 0 0.04 -0.01 0 0.05 -0.01 0 -0.05 0 0 -0.04 0 0 -0.03 0 0 -0.02 0 0 -0.01 0 0 0 0 0 0.01 0 0 0.02 0 0 0.03 0 0 0.04 0 0 0.05 0 0 -0.05 0.01 0 -0.04 0.01 0 -0.03 0.01 0 -0.02 0.01 0 -0.01 0.01 0 0 0.01 0 0.01 0.01 0 0.02 0.01 0 0.03 0.01 0 0.04 0.01 0 0.05 0.01 0 -0.05 0.02 0 -0.04 0.02 0 -0.03 0.02 0 -0.02 0.02 0 -0.01 0.02 0 0 0.02 0 0.01 0.02 0 0.02 0.02 0 0.03 0.02 0 0.04 0.02 0 0.05 0.02 0 -0.05 0.03 0 -0.04 0.03 0 -0.03 0.03 0 -0.02 0.03 0 -0.01 0.03 0 0 0.03 0 0.01 0.03 0 0.02 0.03 0 0.03 0.03 0 0.04 0.03 0 0.05 0.03 0 -0.05 0.04 0 -0.04 0.04 0 -0.03 0.04 0 -0.02 0.04 0 -0.01 0.04 0 0 0.04 0 0.01 0.04 0 0.02 0.04 0 0.03 0.04 0 0.04 0.04 0 0.05 0.04 0 -0.05 0.05 0 -0.04 0.05 0 -0.03 0.05 0 -0.02 0.05 0 -0.01 0.05 0 0 0.05 0 0.01 0.05 0 0.02 0.05 0 0.03 0.05 0 0.04 0.05 0 0.05 0.05 0 
</DataArray>
</Points>
<Cells>
<DataArray Name="connectivity" format="ascii" type="Int64">
0 1 12 11 1 2 13 12 2 3 14 13 3 4 15 14 4 5 16 15 5 6 17 16 6 7 18 17 7 8 19 18 8 9 20 19 9 10 21 20 11 12 23 22 12 13 24 23 13 14 25 24 14 15 26 25 15 16 27 26 16 17 28 27 17 18 29 28 18 19 30 29 19 20 31 30 20 21 32 31 22 23 34 33 23 24 35 34 24 25 36 35 25 26 37 36 26 27 38 37 27 28 39 38 28 29 40 39 29 30 41 40 30 31 42 41 31 32 43 42 33 34 45 44 34 35 46 45 35 36 47 46 36 37 48 47 37 38 49 48 38 39 50 49 39 40 51 50 40 41 52 51 41 42 53 52 42 43 54 53 44 45 56 55 45 46 57 56 46 47 58 57 47 48 59 58 48 49 60 59 49 50 61 60 50 51 62 61 51 52 63 62 52 53 64 63 53 54 65 64 55 56 67 66 56 57 68 67 57 58 69 68 58 59 70 69 59 60 71 70 60 61 72 71 61 62 73 72 62 63 74 73 63 64 75 74 64 65 76 75 66 67 78 77 67 68 79 78 68 69 80 79 69 70 81 80 70 71 82 81 71 72 83 82 72 73 84 83 73 74 85 84 74 75 86 85 75 76 87 86 77 78 89 88 78 79 90 89 79 80 91 90 80 81 92 91 81 82 93 92 82 83 94 93 83 84 95 94 84 85 96 95 85 86 97 96 86 87 98 97 88 89 100 99 89 90 101 100 90 91 102 101 91 92 103 102 92 93 104 103 93 94 105 104 94 95 106 105 95 96 107 106 96 97 108 107 97 98 109 108 99 100 111 110 100 101 112 111 101 102 113 112 102 103 114 113 103 104 115 114 104 105 116 115 105 106 117 116 106 107 118 117 107 108 119 118 108 109 120 119 
</DataArray>
<DataArray Name="offsets" format="ascii" type="Int64">
4 8 12 16 20 24 28 32 36 40 44 48 52 56 60 64 68 72 76 80 84 88 92 96 100 104 108 112 116 120 124 128 132 136 140 144 148 152 156 160 164 168 172 176 180 184 188 192 196 200 204 208 212 216 220 224 228 232 236 240 244 248 252 256 260 264 268 272 276 280 284 288 292 296 300 304 308 312 316 320 324 328 332 336 340 344 348 352 356 360 364 368 372 376 380 384 388 392 396 400 
</DataArray>
<DataArray Name="types" format="ascii" type="Int8">
9 9 9 9 9 9 9 9 9 9 9 9 9 9 9 9 9 9 9 9 9 9 9 9 9 9 9 9 9 9 9 9 9 9 9 9 9 9 9 9 9 9 9 9 9 9 9 9 9 9 9 9 9 9 9 9 9 9 9 9 9 9 9 9 9 9 9 9 9 9 9 9 9 9 9 9 9 9 9 9 9 9 9 9 9 9 9 9 9 9 9 9 9 9 9 9 9 9 9 9 
</DataArray>
</Cells>
</Piece>
</UnstructuredGrid>
</VTKFile>
