<?xml version="1.0"?>
<VTKFile byte_order="LittleEndian" type="UnstructuredGrid" version="0.1">
<UnstructuredGrid>
<Piece NumberOfCells="100" NumberOfPoints="121">
<PointData>
<DataArray Name="Warping_X" format="ascii" type="Float64">
6.58589e-12 9.69408e-12 1.23907e-11 1.51191e-11 1.82692e-11 2.16794e-11 2.81968e-11 2.96989e-11 2.59014e-11 1.75831e-11 6.10844e-12 1.15592e-11 1.38537e-11 1.58462e-11 1.7503e-11 1.88576e-11 2.01303e-11 2.2089e-11 2.22518e-11 1.89069e-11 1.21463e-11 2.98783e-12 1.6509e-11 1.77433e-11 1.85248e-11 1.89801e-11 1.95435e-11 2.06249e-11 2.09271e-11 1.94692e-11 1.57582e-11 9.344e-12 6.77293e-13 2.23691e-11 2.26218e-11 2.24442e-11 2.2084e-11 2.20826e-11 2.32889e-11 2.28792e-11 2.0654e-11 1.56387e-11 8.79597e-12 2.6021e-13 2.9754e-11 2.9364e-11 2.88845e-11 2.88288e-11 2.92295e-11 3.04603e-11 2.96415e-11 2.38e-11 1.71655e-11 1.02899e-11 2.35908e-12 3.87723e-11 3.73052e-11 3.81643e-11 4.08674e-11 4.48099e-11 4.9838e-11 3.71375e-11 2.64365e-11 1.95329e-11 1.42954e-11 8.95013e-12 -1.94735e-12 -1.85556e-11 -2.71414e-11 -2.96029e-11 -2.36953e-11 9.79034e-13 1.84979e-11 2.3588e-11 2.44046e-11 2.33502e-11 2.05123e-11 -3.38745e-11 -5.17782e-11 -6.37208e-11 -6.80335e-11 -6.1365e-11 -4.39056e-11 -1.22839e-11 8.35692e-12 1.79214e-11 2.10555e-11 1.96981e-11 -4.87004e-11 -6.64557e-11 -7.77542e-11 -8.08389e-11 -7.46094e-11 -5.81819e-11 -2.70538e-11 -4.55068e-12 6.76358e-12 1.12056e-11 1.12182e-11 -4.83188e-11 -6.47752e-11 -7.20187e-11 -6.99376e-11 -6.00968e-11 -4.35569e-11 -2.25581e-11 -1.25616e-11 -6.17422e-12 -2.33494e-12 -1.16933e-12 -3.48971e-11 -4.94097e-11 -5.06043e-11 -3.96426e-11 -1.89705e-11 3.98299e-12 -2.48589e-11 -2.82332e-11 -2.21934e-11 -1.62474e-11 -1.33912e-11 
</DataArray>
<DataArray Name="Warping_Y" format="ascii" type="Float64">
2.6727e-11 2.20354e-11 1.72478e-11 1.26028e-11 9.25312e-12 9.93871e-12 2.29965e-11 3.26944e-11 4.19577e-11 5.00299e-11 5.56354e-11 3.0087e-11 2.50043e-11 1.93695e-11 1.35854e-11 9.08504e-12 7.69687e-12 1.09786e-11 1.7466e-11 2.4491e-11 3.10313e-11 3.5594e-11 3.38185e-11 2.81216e-11 2.15811e-11 1.452e-11 8.124e-12 4.35058e-12 2.44053e-12 4.73295e-12 9.60319e-12 1.46092e-11 1.77809e-11 3.85319e-11 3.17726e-11 2.41236e-11 1.53327e-11 5.94129e-12 -1.53948e-12 -6.28773e-12 -5.80982e-12 -2.39015e-12 5.94121e-13 1.51454e-12 4.37709e-11 3.56556e-11 2.66351e-11 1.58338e-11 3.08475e-12 -1.07168e-11 -1.4788e-11 -1.25068e-11 -1.08405e-11 -1.08626e-11 -1.34834e-11 4.89147e-11 3.88383e-11 2.78786e-11 1.49913e-11 -7.65119e-13 -2.14786e-11 -1.33798e-11 -1.39953e-11 -1.57317e-11 -1.95791e-11 -2.69252e-11 7.60716e-11 5.55217e-11 3.50051e-11 1.10389e-11 -2.0403e-11 -8.41252e-11 -3.95543e-11 -2.90298e-11 -2.42233e-11 -2.24235e-11 -2.45351e-11 9.62642e-11 6.76105e-11 4.01719e-11 7.71458e-12 -3.96501e-11 -1.15372e-10 -6.83367e-11 -4.5223e-11 -3.25935e-11 -2.49612e-11 -1.99384e-11 1.00426e-10 7.07398e-11 4.14362e-11 4.84973e-12 -4.81064e-11 -1.2797e-10 -8.93743e-11 -5.94675e-11 -3.89069e-11 -2.60138e-11 -1.5801e-11 8.92844e-11 6.36882e-11 3.63914e-11 1.75785e-12 -4.90554e-11 -1.24962e-10 -9.86228e-11 -6.39187e-11 -4.0159e-11 -2.50477e-11 -1.30001e-11 6.70956e-11 4.71262e-11 2.35198e-11 -5.8672e-12 -4.80317e-11 -1.12616e-10 -8.68097e-11 -5.84209e-11 -3.66881e-11 -2.26046e-11 -1.14247e-11 
</DataArray>
<DataArray Name="Warping_Z" format="ascii" type="Float64">
0 0 0 0 0 0 0 0 0 0 0 0 0 0 0 0 0 0 0 0 0 0 0 0 0 0 0 0 0 0 0 0 0 0 0 0 0 0 0 0 0 0 0 0 0 0 0 0 0 0 0 0 0 0 0 0 0 0 0 0 0 0 0 0 0 0 0 0 0 0 0 0 0 0 0 0 0 0 0 0 0 0 0 0 0 0 0 0 0 0 0 0 0 0 0 0 0 0 0 0 0 0 0 0 0 0 0 0 0 0 0 0 0 0 0 0 0 0 0 0 0 
</DataArray>
</PointData>
<CellData>
<DataArray Name="MaterialId" format="ascii" type="Float64">
1 1 1 1 1 2 2 2 2 2 1 1 1 1 1 2 2 2 2 2 1 1 1 1 1 2 2 2 2 2 1 1 1 1 1 2 2 2 2 2 1 1 1 1 1 2 2 2 2 2 3 3 3 3 3 4 4 4 4 4 3 3 3 3 3 4 4 4 4 4 3 3 3 3 3 4 4 4 4 4 3 3 3 3 3 4 4 4 4 4 3 3 3 3 3 4 4 4 4 4 
</DataArray>
<DataArray Name="FiberAngle" format="ascii" type="Float64">
0 0 0 0 0 0 0 0 0 0 0 0 0 0 0 0 0 0 0 0 0 0 0 0 0 0 0 0 0 0 0 0 0 0 0 0 0 0 0 0 0 0 0 0 0 0 0 0 0 0 17 17 17 17 17 0 0 0 0 0 17 17 17 17 17 0 0 0 0 0 17 17 17 17 17 0 0 0 0 0 17 17 17 17 17 0 0 0 0 0 17 17 17 17 17 0 0 0 0 0 
</DataArray>
<DataArray Name="Strain_11" format="ascii" type="Float64">
2.70136e-10 2.34456e-10 2.1926e-10 2.25233e-10 2.34144e-10 4.23807e-10 8.32466e-11 -3.57123e-10 -7.53945e-10 -1.03166e-09 1.76438e-10 1.38704e-10 1.05603e-10 9.5899e-11 1.17704e-10 1.13041e-10 -6.47506e-11 -3.52798e-10 -6.58739e-10 -8.91257e-10 7.43441e-11 3.0201e-11 4.74988e-12 2.81038e-11 1.14385e-10 -5.37603e-12 -1.84156e-10 -4.36314e-10 -6.62847e-10 -8.60123e-10 -6.8678e-12 -3.28539e-11 -2.07981e-11 1.99685e-11 1.21855e-10 -6.1423e-11 -4.03336e-10 -5.82488e-10 -6.85915e-10 -8.23331e-10 -9.28569e-11 1.89782e-11 1.3237e-10 2.17157e-10 3.12949e-10 -6.75966e-10 -8.27125e-10 -6.76907e-10 -6.05649e-10 -6.63807e-10 -9.03767e-10 -3.86337e-10 1.20802e-11 4.92501e-10 1.48513e-09 2.40916e-10 -2.80547e-10 -3.0435e-10 -3.14593e-10 -4.09155e-10 -1.7256e-09 -1.02642e-09 -3.38713e-10 6.28806e-10 2.10669e-09 2.45702e-09 1.28655e-09 5.19055e-10 1.03985e-10 -2.09761e-10 -1.78295e-09 -1.16206e-09 -3.69871e-10 6.44904e-10 1.69434e-09 3.13749e-09 2.1572e-09 1.04394e-09 3.78809e-10 -6.72422e-11 -1.71059e-09 -9.27102e-10 -5.01783e-11 8.03518e-10 1.64837e-09 2.60634e-09 1.62498e-09 8.8508e-10 4.14067e-10 5.89083e-11 -1.54845e-09 -4.21906e-10 6.5214e-10 1.52565e-09 1.97467e-09 -3.92158e-10 3.31114e-10 6.21355e-10 4.89267e-10 2.01088e-10 
</DataArray>
<DataArray Name="Strain_22" format="ascii" type="Float64">
3.16439e-10 2.54528e-10 1.55214e-10 4.07234e-11 -1.20496e-10 -7.12987e-10 -1.36232e-09 -1.63476e-09 -1.82326e-09 -1.952e-09 3.42442e-10 2.66445e-10 1.57313e-10 -1.31873e-12 -2.15367e-10 -5.94218e-10 -1.06356e-09 -1.38104e-09 -1.5655e-09 -1.71176e-09 4.18225e-10 3.09678e-10 1.67756e-10 -6.85034e-11 -4.03639e-10 -7.30916e-10 -9.63551e-10 -1.12681e-09 -1.30042e-09 -1.51407e-09 4.561e-10 3.19728e-10 1.50632e-10 -1.17773e-10 -6.01693e-10 -8.83878e-10 -7.59862e-10 -7.57368e-10 -9.95353e-10 -1.32273e-09 4.16326e-10 2.2131e-10 2.00508e-11 -2.34618e-10 -7.30582e-10 -4.67682e-10 -4.01841e-12 -3.18985e-10 -6.80388e-10 -1.10792e-09 2.19201e-09 1.19049e-09 1.58701e-10 -1.17952e-09 -4.11423e-09 -4.44105e-09 -2.06044e-09 -1.1763e-09 -5.66797e-10 -2.27164e-11 1.61407e-09 8.62785e-10 9.21287e-11 -1.12857e-09 -2.52469e-09 -3.00146e-09 -2.24878e-09 -1.22817e-09 -5.45395e-10 1.02956e-10 3.64561e-10 2.19675e-10 -8.00312e-11 -5.66059e-10 -1.05273e-09 -1.6818e-09 -1.76411e-09 -1.02789e-09 -3.68302e-10 1.54234e-10 -9.09669e-10 -6.0482e-10 -4.06833e-10 -2.02043e-10 1.0297e-10 -3.12004e-10 -6.84983e-10 -2.85166e-10 -1.42987e-11 1.88354e-10 -1.93754e-09 -1.47168e-09 -1.02483e-09 -3.30069e-10 6.6847e-10 1.20794e-09 8.65542e-10 4.48435e-10 2.95703e-10 2.00923e-10 
</DataArray>
<DataArray Name="Strain_12" format="ascii" type="Float64">
-3.20662e-11 -1.40362e-10 -2.29479e-10 -2.43883e-10 -8.3165e-11 4.34124e-10 1.31512e-10 9.23303e-11 1.09052e-10 8.05351e-11 -9.70128e-11 -2.80354e-10 -4.34475e-10 -4.36673e-10 -1.99052e-10 3.5222e-11 2.41766e-10 2.982e-10 2.79767e-10 1.31078e-10 -8.58806e-11 -2.69584e-10 -4.41436e-10 -5.07223e-10 -3.02555e-10 -1.02107e-10 2.95364e-10 4.67763e-10 3.6614e-10 1.56349e-10 -3.73714e-11 -1.74353e-10 -3.20359e-10 -4.12439e-10 -3.48204e-10 2.55711e-10 6.33365e-10 4.87938e-10 2.99146e-10 9.46231e-11 -6.16075e-11 -1.37955e-10 -1.18513e-10 -4.43182e-11 2.21551e-11 1.54507e-09 5.89906e-10 2.46687e-10 1.25167e-10 3.14838e-11 -6.36034e-09 -7.63214e-09 -8.63148e-09 -9.30869e-09 -1.009e-08 -7.41446e-10 -5.78958e-10 2.54665e-10 5.93942e-10 5.57965e-10 -5.71766e-09 -5.88786e-09 -6.57168e-09 -7.74534e-09 -1.10999e-08 7.96994e-10 -6.18732e-10 -2.13913e-10 3.27188e-11 -9.8855e-12 -4.39217e-09 -4.27267e-09 -4.79413e-09 -6.31853e-09 -9.15533e-09 2.82926e-09 1.26715e-09 4.56229e-10 -2.41119e-11 -1.54706e-10 -2.66102e-09 -2.45922e-09 -2.72916e-09 -3.91777e-09 -6.33165e-09 4.2028e-09 3.05479e-09 1.16858e-09 7.63005e-11 -1.83384e-10 -8.38921e-10 -7.06167e-10 -6.15558e-10 -1.07782e-09 -2.59125e-09 4.86924e-09 2.25602e-09 6.90084e-10 -3.68447e-11 -1.4534e-10 
</DataArray>
<DataArray Name="Strain_13" format="ascii" type="Float64">
-2.02248e-09 3.16701e-09 5.01351e-09 4.3483e-09 7.29399e-10 1.13426e-08 1.08864e-08 9.75677e-09 6.68689e-09 -4.22838e-10 -4.67102e-10 2.33245e-09 3.46115e-09 2.87562e-09 7.30386e-10 5.49014e-09 5.78229e-09 5.23924e-09 3.42685e-09 -6.83916e-11 2.41096e-09 3.1529e-09 3.31821e-09 2.80449e-09 1.74266e-09 -9.88719e-10 2.54233e-10 1.28851e-09 1.96113e-09 2.08668e-09 5.4477e-09 4.4055e-09 3.68852e-09 3.15114e-09 2.70518e-09 -8.5847e-09 -6.22479e-09 -2.85193e-09 4.92342e-10 4.24138e-09 7.85357e-09 5.02522e-09 3.75852e-09 3.26559e-09 3.2645e-09 -2.107e-08 -1.26253e-08 -7.50557e-09 -2.50349e-09 4.81157e-09 1.11501e-08 8.87774e-09 8.31417e-09 8.83985e-09 1.05862e-08 -3.32221e-08 -1.95504e-08 -1.1305e-08 -3.3335e-09 7.14765e-09 1.43764e-08 1.47599e-08 1.58974e-08 1.78811e-08 2.08703e-08 -3.91558e-08 -2.6294e-08 -1.39603e-08 -1.67063e-09 1.15432e-08 1.58622e-08 1.81444e-08 2.07362e-08 2.37766e-08 2.71944e-08 -4.53635e-08 -3.1747e-08 -1.67857e-08 -1.35061e-09 1.44952e-08 1.71475e-08 2.03367e-08 2.38117e-08 2.80253e-08 3.31413e-08 -5.53773e-08 -3.78538e-08 -2.01227e-08 -2.04124e-09 1.69427e-08 1.80831e-08 2.08982e-08 2.45251e-08 2.95938e-08 3.70773e-08 -6.66735e-08 -4.38089e-08 -2.40497e-08 -4.27713e-09 1.78887e-08 
</DataArray>
<DataArray Name="Strain_23" format="ascii" type="Float64">
1 1 1 1 1 1 1 1 1 1 1 1 1 1 1 1 1 1 1 1 1 1 1 1 1 1 1 1 1 1 1 1 1 1 1 1 1 1 1 1 1 1 1 1 1 1 1 1 1 1 1 1 1 1 1 1 1 1 1 1 1 1 1 1 1 1 1 1 1 1 1 1 1 1 1 1 1 1 1 1 1 1 1 1 1 1 1 1 1 1 1 1 1 1 1 1 1 1 1 1 
</DataArray>
<DataArray Name="Strain_33" format="ascii" type="Float64">
-1.82253e-09 -1.53466e-09 -1.18824e-09 -8.29933e-10 -4.99317e-10 -7.6653e-11 4.31934e-10 8.84201e-10 1.27814e-09 1.58415e-09 -1.53769e-09 -1.25504e-09 -9.47663e-10 -6.34047e-10 -3.29852e-10 2.75203e-11 4.33904e-10 8.13926e-10 1.16107e-09 1.46214e-09 -1.29924e-09 -9.98351e-10 -7.11921e-10 -4.29117e-10 -1.36329e-10 1.62016e-10 4.64765e-10 7.78593e-10 1.09729e-09 1.41725e-09 -1.03974e-09 -7.25286e-10 -4.70235e-10 -2.35635e-10 3.27491e-11 2.72706e-10 4.82881e-10 7.40074e-10 1.03263e-09 1.37207e-09 -6.88763e-10 -3.88485e-10 -2.05552e-10 -6.75325e-11 1.02856e-10 2.91966e-10 4.65979e-10 6.64578e-10 9.14142e-10 1.24958e-09 1.86807e-10 2.50252e-10 1.30068e-10 -1.13878e-10 -4.59848e-10 -4.29971e-10 -3.66572e-11 2.9382e-10 6.44434e-10 1.06485e-09 1.58665e-09 1.12571e-09 4.53719e-10 -4.17784e-10 -1.50194e-09 -1.70229e-09 -9.70984e-10 -3.41241e-10 2.44251e-10 8.34628e-10 3.03485e-09 1.97015e-09 7.07288e-10 -7.63805e-10 -2.4492e-09 -2.81068e-09 -1.80673e-09 -9.34113e-10 -1.63949e-10 5.55578e-10 4.40337e-09 2.76323e-09 9.57608e-10 -1.05502e-09 -3.31695e-09 -3.78982e-09 -2.4819e-09 -1.42283e-09 -5.29515e-10 2.81647e-10 5.49132e-09 3.39603e-09 1.20827e-09 -1.18675e-09 -3.9037e-09 -4.44656e-09 -2.8934e-09 -1.7511e-09 -8.21925e-10 2.05678e-11 
</DataArray>
<DataArray Name="Stress_11" format="ascii" type="Float64">
-28.2395 -23.5689 -16.3292 -7.30961 -0.616971 -4.06582 -2.43879 0.532484 3.66163 7.4875 -25.8067 -21.9917 -18.0548 -13.5296 -8.4411 -6.79886 -1.2939 2.1863 6.05572 10.8026 -24.0074 -21.264 -18.5125 -14.8028 -8.55534 -6.61988 -1.71557 2.68174 7.99055 13.5446 -20.9259 -17.0539 -12.9837 -10.5121 -8.8953 -5.88891 -4.07826 3.22442 10.0482 16.3345 -17.7908 -4.11955 5.38999 8.91789 6.1598 -17.2919 -3.99079 5.00581 13.0227 19.7577 47.7714 40.6622 35.4053 31.5883 27.3751 -1.47958e-07 -9.80873e-08 -5.79472e-08 -2.54506e-08 -3.47186e-10 64.2155 64.2026 63.6699 64.5171 72.6691 5.61799e-08 3.07995e-09 -8.16785e-09 -1.17466e-09 1.38577e-08 81.5373 83.0901 84.4233 86.4849 87.3627 1.24426e-07 6.87754e-08 2.51405e-08 1.53761e-08 1.86849e-08 98.7156 100.984 102.575 103.653 105.118 9.04899e-08 3.52062e-08 1.97644e-08 1.8129e-08 2.16282e-08 113.535 114.036 115.368 117.918 120.721 -1.47801e-07 -4.09406e-08 1.027e-08 2.54707e-08 2.57032e-08 
</DataArray>
<DataArray Name="Stress_22" format="ascii" type="Float64">
-25.7073 -22.4712 -19.8318 -17.4 -20.0113 -7.58382 -6.53542 -2.75779 1.16567 5.16025 -16.7284 -15.0058 -15.2269 -18.8462 -26.6559 -7.60751 -3.94036 -0.739189 3.26725 7.66093 -5.20139 -5.98004 -9.59808 -20.086 -36.8848 -7.25862 -3.30437 0.877684 5.57951 10.1846 4.39262 2.22786 -3.60863 -18.0448 -48.4643 -6.87877 -3.27736 3.22683 8.21153 12.6943 10.0552 6.94546 -0.752477 -15.7885 -50.9083 -10.9036 1.42709 6.44938 11.0112 15.0946 19.8855 11.0863 -0.852615 -17.697 -54.2592 -4.04003e-07 -1.95425e-07 -1.05632e-07 -3.9243e-08 2.07861e-08 12.5241 4.23377 -5.98328 -22.0102 -38.5194 -2.42331e-07 -1.90258e-07 -1.03719e-07 -3.66876e-08 3.09594e-08 2.39388 -2.39793 -9.40799 -18.8302 -29.4294 -1.39129e-07 -1.45671e-07 -8.81628e-08 -2.54815e-08 3.07968e-08 -7.51653 -8.63364 -11.6596 -16.3015 -21.4771 -6.91071e-08 -9.112e-08 -4.42334e-08 -5.2973e-09 2.87072e-08 -14.8112 -13.6817 -14.1096 -14.4002 -16.5024 -6.0296e-08 -1.17141e-08 8.1346e-10 1.48852e-08 2.56942e-08 
</DataArray>
<DataArray Name="Stress_12" format="ascii" type="Float64">
-0.876813 -3.83803 -6.27483 -6.66868 -2.27405 2.17062 0.657558 0.461652 0.545261 0.402676 -2.6527 -7.66595 -11.8802 -11.9403 -5.44284 0.17611 1.20883 1.491 1.39884 0.65539 -2.3483 -7.37144 -12.0705 -13.8694 -8.27301 -0.510537 1.47682 2.33881 1.8307 0.781743 -1.02187 -4.76748 -8.75983 -11.2776 -9.52123 1.27855 3.16683 2.43969 1.49573 0.473115 -1.68458 -3.7722 -3.2406 -1.21183 0.605805 7.72533 2.94953 1.23344 0.625835 0.157419 5.59193e+08 5.59193e+08 5.59193e+08 5.59193e+08 5.59193e+08 -2.02739e-08 -1.58309e-08 6.9635e-09 1.62406e-08 1.52569e-08 5.59193e+08 5.59193e+08 5.59193e+08 5.59193e+08 5.59193e+08 2.17928e-08 -1.69185e-08 -5.8492e-09 8.94657e-10 -2.70307e-10 5.59193e+08 5.59193e+08 5.59193e+08 5.59193e+08 5.59193e+08 7.73628e-08 3.46488e-08 1.2475e-08 -6.59311e-10 -4.23026e-09 5.59193e+08 5.59193e+08 5.59193e+08 5.59193e+08 5.59193e+08 1.1492e-07 8.35295e-08 3.19533e-08 2.08635e-09 -5.01441e-09 5.59193e+08 5.59193e+08 5.59193e+08 5.59193e+08 5.59193e+08 1.33144e-07 6.16881e-08 1.88695e-08 -1.00747e-09 -3.97415e-09 
</DataArray>
<DataArray Name="Stress_13" format="ascii" type="Float64">
-55.3024 86.598 137.088 118.899 19.9445 68.0557 65.3181 58.5406 40.1213 -2.53703 -12.7723 63.778 94.6409 78.6304 19.9715 32.9409 34.6937 31.4355 20.5611 -0.41035 65.9248 86.2122 90.7325 76.6853 47.651 -5.93231 1.5254 7.73107 11.7668 12.5201 148.961 120.463 100.858 86.1643 73.9699 -51.5082 -37.3487 -17.1116 2.95405 25.4483 214.747 137.409 102.772 89.2935 89.2639 -126.42 -75.7519 -45.0334 -15.0209 28.8694 178.035 146.65 135.795 138.551 159.982 -9.08418e-07 -5.34583e-07 -3.09121e-07 -9.11505e-08 1.95444e-07 272.345 266.263 265.114 272.065 289.964 -1.07067e-06 -7.18977e-07 -3.81727e-07 -4.56812e-08 3.15635e-07 343.985 347.438 349.99 353.718 356.48 -1.24041e-06 -8.68082e-07 -4.58985e-07 -3.69307e-08 3.96355e-07 410.339 409.578 408.292 411.77 421.218 -1.51423e-06 -1.03507e-06 -5.5023e-07 -5.58152e-08 4.63277e-07 462.136 441.696 430.852 435.092 465.129 -1.82311e-06 -1.1979e-06 -6.5761e-07 -1.16953e-07 4.89144e-07 
</DataArray>
<DataArray Name="Stress_23" format="ascii" type="Float64">
2.73438e+10 2.73438e+10 2.73438e+10 2.73438e+10 2.73438e+10 5e+09 5e+09 5e+09 5e+09 5e+09 2.73438e+10 2.73438e+10 2.73438e+10 2.73438e+10 2.73438e+10 5e+09 5e+09 5e+09 5e+09 5e+09 2.73438e+10 2.73438e+10 2.73438e+10 2.73438e+10 2.73438e+10 5e+09 5e+09 5e+09 5e+09 5e+09 2.73438e+10 2.73438e+10 2.73438e+10 2.73438e+10 2.73438e+10 5e+09 5e+09 5e+09 5e+09 5e+09 2.73438e+10 2.73438e+10 2.73438e+10 2.73438e+10 2.73438e+10 5e+09 5e+09 5e+09 5e+09 5e+09 4.82904e+09 4.82904e+09 4.82904e+09 4.82904e+09 4.82904e+09 27.3438 27.3438 27.3438 27.3438 27.3438 4.82904e+09 4.82904e+09 4.82904e+09 4.82904e+09 4.82904e+09 27.3438 27.3438 27.3438 27.3438 27.3438 4.82904e+09 4.82904e+09 4.82904e+09 4.82904e+09 4.82904e+09 27.3438 27.3438 27.3438 27.3438 27.3438 4.82904e+09 4.82904e+09 4.82904e+09 4.82904e+09 4.82904e+09 27.3438 27.3438 27.3438 27.3438 27.3438 4.82904e+09 4.82904e+09 4.82904e+09 4.82904e+09 4.82904e+09 27.3438 27.3438 27.3438 27.3438 27.3438 
</DataArray>
<DataArray Name="Stress_33" format="ascii" type="Float64">
-142.682 -120.317 -93.302 -65.014 -40.7281 -15.9745 6.95221 32.1823 55.3872 75.69 -119.548 -98.2118 -75.6553 -53.4485 -32.9168 -13.8881 11.2633 33.2358 55.2322 76.5467 -99.1252 -77.5129 -57.7054 -39.807 -22.2662 -7.92049 13.0082 34.296 57.138 80.0885 -77.4112 -54.9213 -37.5623 -24.4904 -13.7683 -2.45086 11.996 36.2161 59.5164 83.6361 -50.3794 -26.4027 -13.0901 -6.65105 -5.32962 -15.465 17.5013 38.7217 60.6472 84.4244 390.386 325.195 291.555 277.864 290.066 -1.84647e-07 -8.47496e-08 -2.52348e-08 2.69962e-08 8.02625e-08 655.73 616.941 576.448 540.545 517.846 -1.71283e-07 -1.20379e-07 -5.52153e-08 6.49613e-09 7.09728e-08 877.108 828.072 766.2 695.392 610.838 -2.00865e-07 -1.48002e-07 -8.30342e-08 -1.4306e-08 5.27454e-08 1083.72 997.912 901.676 803.707 704.89 -2.593e-07 -1.89389e-07 -1.06449e-07 -3.34732e-08 3.38092e-08 1246.59 1097.74 963.252 848.974 769.713 -3.69527e-07 -2.17281e-07 -1.19474e-07 -4.62351e-08 1.5831e-08 
</DataArray>
</CellData>
<Points>
<DataArray NumberOfComponents="3" format="ascii" type="Float64">
-0.05 -0.05 0 -0.04 -0.05 0 -0.03 -0.05 0 -0.02 -0.05 0 -0.01 -0.05 0 0 -0.05 0 0.01 -0.05 0 0.02 -0.05 0 0.03 -0.05 0 0.04 -0.05 0 0.05 -0.05 0 -0.05 -0.04 0 -0.04 -0.04 0 -0.03 -0.04 0 -0.02 -0.04 0 -0.01 -0.04 0 0 -0.04 0 0.01 -0.04 0 0.02 -0.04 0 0.03 -0.04 0 0.04 -0.04 0 0.05 -0.04 0 -0.05 -0.03 0 -0.04 -0.03 0 -0.03 -0.03 0 -0.02 -0.03 0 -0.01 -0.03 0 0 -0.03 0 0.01 -0.03 0 0.02 -0.03 0 0.03 -0.03 0 0.04 -0.03 0 0.05 -0.03 0 -0.05 -0.02 0 -0.04 -0.02 0 -0.03 -0.02 0 -0.02 -0.02 0 -0.01 -0.02 0 0 -0.02 0 0.01 -0.02 0 0.02 -0.02 0 0.03 -0.02 0 0.04 -0.02 0 0.05 -0.02 0 -0.05 -0.01 0 -0.04 -0.01 0 -0.03 -0.01 0 -0.02 -0.01 0 -0.01 -0.01 0 0 -0.01 0 0.01 -0.01 0 0.02 -0.01 0 0.03 -0.01 0 0.04 -0.01 0 0.05 -0.01 0 -0.05 0 0 -0.04 0 0 -0.03 0 0 -0.02 0 0 -0.01 0 0 0 0 0 0.01 0 0 0.02 0 0 0.03 0 0 0.04 0 0 0.05 0 0 -0.05 0.01 0 -0.04 0.01 0 -0.03 0.01 0 -0.02 0.01 0 -0.01 0.01 0 0 0.01 0 0.01 0.01 0 0.02 0.01 0 0.03 0.01 0 0.04 0.01 0 0.05 0.01 0 -0.05 0.02 0 -0.04 0.02 0 -0.03 0.02 0 -0.02 0.02 0 -0.01 0.02 0 0 0.02 0 0.01 0.02 0 0.02 0.02 0 0.03 0.02 0 0.04 0.02 0 0.05 0.02 0 -0.05 0.03 0 -0.04 0.03 0 -0.03 0.03 0 -0.02 0.03 0 -0.01 0.03 0 0 0.03 0 0.01 0.03 0 0.02 0.03 0 0.03 0.03 0 0.04 0.03 0 0.05 0.03 0 -0.05 0.04 0 -0.04 0.04 0 -0.03 0.04 0 -0.02 0.04 0 -0.01 0.04 0 0 0.04 0 0.01 0.04 0 0.02 0.04 0 0.03 0.04 0 0.04 0.04 0 0.05 0.04 0 -0.05 0.05 0 -0.04 0.05 0 -0.03 0.05 0 -0.02 0.05 0 -0.01 0.05 0 0 0.05 0 0.01 0.05 0 0.02 0.05 0 0.03 0.05 0 0.04 0.05 0 0.05 0.05 0 
</DataArray>
</Points>
<Cells>
<DataArray Name="connectivity" format="ascii" type="Int64">
0 1 12 11 1 2 13 12 2 3 14 13 3 4 15 14 4 5 16 15 5 6 17 16 6 7 18 17 7 8 19 18 8 9 20 19 9 10 21 20 11 12 23 22 12 13 24 23 13 14 25 24 14 15 26 25 15 16 27 26 16 17 28 27 17 18 29 28 18 19 30 29 19 20 31 30 20 21 32 31 22 23 34 33 23 24 35 34 24 25 36 35 25 26 37 36 26 27 38 37 27 28 39 38 28 29 40 39 29 30 41 40 30 31 42 41 31 32 43 42 33 34 45 44 34 35 46 45 35 36 47 46 36 37 48 47 37 38 49 48 38 39 50 49 39 40 51 50 40 41 52 51 41 42 53 52 42 43 54 53 44 45 56 55 45 46 57 56 46 47 58 57 47 48 59 58 48 49 60 59 49 50 61 60 50 51 62 61 51 52 63 62 52 53 64 63 53 54 65 64 55 56 67 66 56 57 68 67 57 58 69 68 58 59 70 69 59 60 71 70 60 61 72 71 61 62 73 72 62 63 74 73 63 64 75 74 64 65 76 75 66 67 78 77 67 68 79 78 68 69 80 79 69 70 81 80 70 71 82 81 71 72 83 82 72 73 84 83 73 74 85 84 74 75 86 85 75 76 87 86 77 78 89 88 78 79 90 89 79 80 91 90 80 81 92 91 81 82 93 92 82 83 94 93 83 84 95 94 84 85 96 95 85 86 97 96 86 87 98 97 88 89 100 99 89 90 101 100 90 91 102 101 91 92 103 102 92 93 104 103 93 94 105 104 94 95 106 105 95 96 107 106 96 97 108 107 97 98 109 108 99 100 111 110 100 101 112 111 101 102 113 112 102 103 114 113 103 104 115 114 104 105 116 115 105 106 117 116 106 107 118 117 107 108 119 118 108 109 120 119 
</DataArray>
<DataArray Name="offsets" format="ascii" type="Int64">
4 8 12 16 20 24 28 32 36 40 44 48 52 56 60 64 68 72 76 80 84 88 92 96 100 104 108 112 116 120 124 128 132 136 140 144 148 152 156 160 164 168 172 176 180 184 188 192 196 200 204 208 212 216 220 224 228 232 236 240 244 248 252 256 260 264 268 272 276 280 284 288 292 296 300 304 308 312 316 320 324 328 332 336 340 344 348 352 356 360 364 368 372 376 380 384 388 392 396 400 
</DataArray>
<DataArray Name="types" format="ascii" type="Int8">
9 9 9 9 9 9 9 9 9 9 9 9 9 9 9 9 9 9 9 9 9 9 9 9 9 9 9 9 9 9 9 9 9 9 9 9 9 9 9 9 9 9 9 9 9 9 9 9 9 9 9 9 9 9 9 9 9 9 9 9 9 9 9 9 9 9 9 9 9 9 9 9 9 9 9 9 9 9 9 9 9 9 9 9 9 9 9 9 9 9 9 9 9 9 9 9 9 9 9 9 
</DataArray>
</Cells>
</Piece>
</UnstructuredGrid>
</VTKFile>
