<?xml version="1.0"?>
<VTKFile byte_order="LittleEndian" type="UnstructuredGrid" version="0.1">
<UnstructuredGrid>
<Piece NumberOfCells="100" NumberOfPoints="121">
<PointData>
<DataArray Name="Warping_X" format="ascii" type="Float64">
1.90855e-11 1.7326e-11 1.57467e-11 1.42804e-11 1.26728e-11 1.10332e-11 3.14747e-12 -3.4932e-12 -1.00741e-11 -1.68113e-11 -2.39636e-11 8.66751e-12 8.11702e-12 7.69337e-12 7.26239e-12 6.51375e-12 5.45364e-12 1.07579e-12 -2.29505e-12 -5.70007e-12 -9.16977e-12 -1.27166e-11 -1.75045e-12 -1.19881e-12 -3.52636e-13 5.28104e-13 1.02598e-12 9.47953e-13 4.47519e-13 -3.14554e-13 -1.03907e-12 -1.60037e-12 -2.1569e-12 -1.15746e-11 -1.00539e-11 -8.20389e-12 -6.37723e-12 -4.76304e-12 -4.07197e-12 -7.6676e-13 1.3558e-12 3.60617e-12 6.0663e-12 8.65967e-12 -1.93093e-11 -1.69968e-11 -1.52671e-11 -1.43811e-11 -1.30671e-11 -1.15738e-11 -4.53131e-12 2.00186e-12 8.27081e-12 1.42865e-11 2.01487e-11 -2.08942e-11 -1.91876e-11 -2.06343e-11 -2.37696e-11 -2.71511e-11 -2.93054e-11 -1.13183e-11 2.21219e-12 1.33824e-11 2.33793e-11 3.30846e-11 -1.27662e-11 -1.46269e-11 -2.06251e-11 -2.87285e-11 -3.56204e-11 -3.56484e-11 -1.88917e-11 -2.76767e-12 1.04224e-11 2.09503e-11 2.73591e-11 -7.14184e-12 -6.7035e-12 -1.49073e-11 -2.52213e-11 -3.26351e-11 -2.78971e-11 -1.33305e-11 -1.0647e-12 1.07513e-11 2.05512e-11 2.90782e-11 2.19646e-12 3.80694e-12 -5.22401e-12 -1.73619e-11 -2.487e-11 -1.99355e-11 -7.82695e-12 3.33208e-12 1.43645e-11 2.45174e-11 3.40892e-11 1.93843e-11 2.08147e-11 8.06431e-12 -9.74321e-12 -2.11038e-11 -1.69785e-11 -5.36564e-12 8.13938e-12 1.99708e-11 3.072e-11 4.11699e-11 4.95117e-11 4.56097e-11 2.23722e-11 -5.40407e-12 -2.56856e-11 -2.57942e-11 -9.49283e-13 1.42767e-11 2.60756e-11 3.71853e-11 4.84611e-11 
</DataArray>
<DataArray Name="Warping_Y" format="ascii" type="Float64">
-4.9868e-11 -4.017e-11 -3.17377e-11 -2.41262e-11 -1.73379e-11 -1.08417e-11 -3.77535e-12 -2.89111e-12 -5.34552e-12 -1.09342e-11 -1.99188e-11 -5.09466e-11 -4.1471e-11 -3.33091e-11 -2.57753e-11 -1.87902e-11 -1.30762e-11 -1.01153e-11 -9.55777e-12 -1.21392e-11 -1.79131e-11 -2.70839e-11 -5.0397e-11 -4.14971e-11 -3.39142e-11 -2.64483e-11 -1.90401e-11 -1.31561e-11 -1.10736e-11 -1.09951e-11 -1.38794e-11 -2.01822e-11 -2.95914e-11 -4.76613e-11 -4.0208e-11 -3.3668e-11 -2.64642e-11 -1.82097e-11 -1.06536e-11 -7.03059e-12 -6.70893e-12 -1.03015e-11 -1.72979e-11 -2.72492e-11 -4.21073e-11 -3.73479e-11 -3.21968e-11 -2.55598e-11 -1.66352e-11 -5.17118e-12 2.12632e-12 2.19566e-12 -2.03689e-12 -9.5796e-12 -2.02216e-11 -3.25088e-11 -3.2264e-11 -2.84975e-11 -2.25392e-11 -1.36672e-11 3.04675e-12 1.28084e-11 1.3885e-11 9.88341e-12 2.23525e-12 -8.84368e-12 4.9047e-12 -1.65839e-11 -2.06267e-11 -1.77344e-11 -8.41088e-12 2.07088e-11 1.05882e-11 1.10418e-11 7.61545e-12 1.31245e-12 -2.39227e-12 3.75162e-11 5.14987e-12 -8.53255e-12 -9.4657e-12 7.99814e-13 2.29374e-11 1.61401e-11 1.30774e-11 9.72693e-12 5.2463e-12 1.32937e-12 6.43452e-11 2.65859e-11 7.21812e-12 3.15065e-12 1.16828e-11 2.98365e-11 2.5765e-11 2.08013e-11 1.6152e-11 1.16783e-11 6.40634e-12 8.74157e-11 4.75081e-11 2.67243e-11 2.09642e-11 2.72562e-11 4.44557e-11 3.90692e-11 3.10769e-11 2.54697e-11 2.04094e-11 1.43083e-11 1.09751e-10 7.12397e-11 5.36027e-11 4.71741e-11 4.94938e-11 6.60252e-11 5.05946e-11 4.29007e-11 3.65903e-11 3.10724e-11 2.46745e-11 
</DataArray>
<DataArray Name="Warping_Z" format="ascii" type="Float64">
0 0 0 0 0 0 0 0 0 0 0 0 0 0 0 0 0 0 0 0 0 0 0 0 0 0 0 0 0 0 0 0 0 0 0 0 0 0 0 0 0 0 0 0 0 0 0 0 0 0 0 0 0 0 0 0 0 0 0 0 0 0 0 0 0 0 0 0 0 0 0 0 0 0 0 0 0 0 0 0 0 0 0 0 0 0 0 0 0 0 0 0 0 0 0 0 0 0 0 0 0 0 0 0 0 0 0 0 0 0 0 0 0 0 0 0 0 0 0 0 0 
</DataArray>
</PointData>
<CellData>
<DataArray Name="MaterialId" format="ascii" type="Float64">
1 1 1 1 1 2 2 2 2 2 1 1 1 1 1 2 2 2 2 2 1 1 1 1 1 2 2 2 2 2 1 1 1 1 1 2 2 2 2 2 1 1 1 1 1 2 2 2 2 2 3 3 3 3 3 4 4 4 4 4 3 3 3 3 3 4 4 4 4 4 3 3 3 3 3 4 4 4 4 4 3 3 3 3 3 4 4 4 4 4 3 3 3 3 3 4 4 4 4 4 
</DataArray>
<DataArray Name="FiberAngle" format="ascii" type="Float64">
0 0 0 0 0 0 0 0 0 0 0 0 0 0 0 0 0 0 0 0 0 0 0 0 0 0 0 0 0 0 0 0 0 0 0 0 0 0 0 0 0 0 0 0 0 0 0 0 0 0 17 17 17 17 17 0 0 0 0 0 17 17 17 17 17 0 0 0 0 0 17 17 17 17 17 0 0 0 0 0 17 17 17 17 17 0 0 0 0 0 17 17 17 17 17 0 0 0 0 0 
</DataArray>
<DataArray Name="Strain_11" format="ascii" type="Float64">
-1.15502e-10 -1.00146e-10 -9.48622e-11 -1.17813e-10 -1.34983e-10 -6.13181e-10 -5.00575e-10 -4.99297e-10 -5.10344e-10 -5.34959e-10 5.75388e-14 2.11264e-11 2.24879e-11 -1.25383e-11 -5.69067e-11 -2.43915e-10 -2.06645e-10 -2.06477e-10 -2.0155e-10 -2.05169e-10 1.03615e-10 1.34811e-10 1.3537e-10 1.05603e-10 3.06524e-11 1.40239e-10 6.80245e-11 7.62926e-11 9.49415e-11 1.01842e-10 1.91656e-10 1.7899e-10 1.35633e-10 1.46407e-10 1.09221e-10 5.17385e-10 4.32786e-10 4.25966e-10 4.2379e-10 4.22779e-10 2.00951e-10 1.41515e-11 -1.12464e-10 -1.03377e-10 -3.30464e-11 1.25148e-09 1.00318e-09 8.71956e-10 8.00633e-10 7.78371e-10 -7.70498e-12 -3.72246e-10 -5.61934e-10 -5.13673e-10 -1.09111e-10 1.73719e-09 1.48272e-09 1.21801e-09 1.02624e-09 8.057e-10 -7.1116e-11 -7.10099e-10 -9.20869e-10 -7.15292e-10 2.35506e-10 1.56616e-09 1.41949e-09 1.2503e-09 1.01639e-09 7.46789e-10 1.0244e-10 -8.61736e-10 -1.1226e-09 -7.46094e-10 4.83623e-10 1.33376e-09 1.17124e-09 1.14242e-09 9.97638e-10 9.04945e-10 1.52043e-10 -1.08907e-09 -1.49727e-09 -9.43428e-10 4.52983e-10 1.18607e-09 1.2332e-09 1.14319e-09 1.0451e-09 1.00109e-09 -1.23579e-10 -1.79939e-09 -2.27919e-09 -1.5821e-09 2.00831e-10 1.82289e-09 1.43655e-09 1.18152e-09 1.09294e-09 1.08628e-09 
</DataArray>
<DataArray Name="Strain_22" format="ascii" type="Float64">
-1.18975e-10 -1.4362e-10 -1.61026e-10 -1.55069e-10 -1.8434e-10 -4.28723e-10 -6.5033e-10 -6.73017e-10 -6.88629e-10 -7.07199e-10 2.61717e-11 -3.15642e-11 -6.39058e-11 -4.61432e-11 -1.64899e-11 -5.19102e-11 -1.19785e-10 -1.5888e-10 -2.00467e-10 -2.38834e-10 2.01244e-10 7.67683e-11 1.15139e-11 4.07199e-11 1.66646e-10 3.27279e-10 4.16462e-10 3.93206e-10 3.23111e-10 2.61324e-10 4.207e-10 2.16566e-10 1.1878e-10 1.23947e-10 3.52846e-10 7.31964e-10 9.03075e-10 8.5846e-10 7.99147e-10 7.37296e-10 7.34123e-10 4.39158e-10 3.35994e-10 2.99431e-10 5.59298e-10 9.44999e-10 1.11857e-09 1.18048e-09 1.18676e-09 1.15964e-09 2.65468e-09 1.17755e-09 6.33785e-10 5.03058e-10 1.14592e-09 7.72095e-10 -2.53172e-10 -2.5556e-10 -1.59538e-10 2.76431e-10 2.71726e-09 1.69139e-09 1.01814e-09 8.73968e-10 5.71961e-10 3.89023e-10 3.79375e-10 2.07352e-10 3.02266e-10 3.82774e-10 2.41325e-09 1.85933e-09 1.41835e-09 1.17497e-09 8.89104e-10 8.262e-10 8.6744e-10 7.07453e-10 6.42859e-10 5.75451e-10 2.19963e-09 2.02142e-09 1.86599e-09 1.66935e-09 1.50963e-09 1.39617e-09 1.17899e-09 9.79662e-10 9.02431e-10 8.3165e-10 2.30336e-09 2.5305e-09 2.65442e-09 2.42238e-09 2.19036e-09 1.65475e-09 1.16746e-09 1.14722e-09 1.08918e-09 1.05146e-09 
</DataArray>
<DataArray Name="Strain_12" format="ascii" type="Float64">
-2.26702e-11 -3.33947e-11 3.69491e-12 2.9818e-11 2.35781e-11 1.18801e-10 2.84123e-11 2.68177e-11 3.26507e-11 3.66583e-11 -6.79187e-11 -8.08498e-11 1.09733e-11 1.0856e-10 8.02271e-11 -4.52815e-12 9.94123e-11 5.87882e-11 7.68562e-12 -2.25412e-11 -1.16308e-10 -1.29174e-10 -4.34153e-12 1.48413e-10 1.31564e-10 -2.64382e-11 4.28113e-11 -8.06394e-12 -4.93644e-11 -4.38632e-11 -1.23246e-10 -1.15746e-10 -6.13174e-11 4.35574e-11 1.60714e-10 -1.72956e-11 -1.36375e-10 -1.25722e-10 -8.27151e-11 -4.42085e-11 6.14232e-11 6.79817e-11 -1.08029e-10 -2.83788e-10 -1.81882e-10 -3.72971e-10 -2.71532e-10 -1.45615e-10 -4.9322e-11 1.53901e-11 -4.27756e-10 2.1469e-10 1.95047e-10 2.38371e-10 1.55107e-09 -7.1377e-10 -5.51148e-10 -7.68387e-10 -9.67004e-10 -1.1469e-09 -2.01536e-09 -2.04201e-10 5.59207e-10 1.30408e-09 3.09969e-09 -1.80275e-10 2.32747e-10 -2.37248e-10 -5.42698e-10 -3.15087e-10 -2.51385e-09 -6.42824e-10 6.27099e-10 1.72111e-09 2.8009e-09 1.29815e-10 9.36965e-11 5.16426e-13 -6.87471e-11 -1.05848e-11 -2.17357e-09 -4.92777e-10 5.53977e-10 1.31045e-09 2.10383e-09 -2.01983e-10 -2.84369e-10 7.85445e-12 1.13746e-10 9.55089e-11 -1.17484e-09 3.41013e-11 3.22917e-10 4.18446e-10 1.01667e-09 -1.26082e-09 -2.56627e-10 1.62234e-11 9.96003e-11 6.28787e-11 
</DataArray>
<DataArray Name="Strain_13" format="ascii" type="Float64">
1 1 1 1 1 1 1 1 1 1 1 1 1 1 1 1 1 1 1 1 1 1 1 1 1 1 1 1 1 1 1 1 1 1 1 1 1 1 1 1 1 1 1 1 1 1 1 1 1 1 1 1 1 1 1 1 1 1 1 1 1 1 1 1 1 1 1 1 1 1 1 1 1 1 1 1 1 1 1 1 1 1 1 1 1 1 1 1 1 1 1 1 1 1 1 1 1 1 1 1 
</DataArray>
<DataArray Name="Strain_23" format="ascii" type="Float64">
-2.8373e-09 -1.35921e-09 1.28472e-09 4.06031e-09 6.25617e-09 9.7497e-09 1.46305e-08 1.87345e-08 2.22156e-08 2.47346e-08 1.84579e-09 1.13604e-09 1.88171e-09 3.00157e-09 3.60661e-09 6.83917e-09 1.24927e-08 1.67969e-08 1.96554e-08 2.07757e-08 3.53609e-09 2.15301e-09 2.00969e-09 2.29858e-09 2.31668e-09 5.57527e-09 1.15906e-08 1.59723e-08 1.84651e-08 1.88031e-08 2.94126e-09 1.63978e-09 1.59687e-09 1.75061e-09 1.64555e-09 5.32348e-09 1.20557e-08 1.67288e-08 1.92165e-08 1.91836e-08 -5.38015e-10 -9.89611e-11 7.6105e-10 1.47124e-09 1.03618e-09 6.41164e-09 1.47083e-08 1.87523e-08 2.19927e-08 2.33411e-08 1.04685e-08 6.30688e-09 -2.06687e-09 -1.25414e-08 -2.50528e-08 -3.14279e-08 -3.16493e-08 -3.46925e-08 -4.08293e-08 -4.88211e-08 9.57089e-09 4.97149e-09 -3.96532e-10 -6.13234e-09 -1.01185e-08 -1.52839e-08 -2.06776e-08 -2.38992e-08 -2.81724e-08 -3.33659e-08 9.30733e-09 5.12147e-09 1.32278e-09 -2.06491e-09 -5.03824e-09 -7.68513e-09 -9.92094e-09 -1.19971e-08 -1.47587e-08 -1.87065e-08 7.9292e-09 4.44085e-09 2.06499e-09 5.19187e-11 -2.12756e-09 -1.83234e-09 8.5837e-11 4.59659e-10 -3.23189e-10 -2.94876e-09 1.00862e-09 4.93822e-10 1.59748e-09 2.84763e-09 2.99449e-09 5.93654e-09 1.07048e-08 1.33281e-08 1.54833e-08 1.59806e-08 
</DataArray>
<DataArray Name="Strain_33" format="ascii" type="Float64">
-1.39841e-10 -1.24639e-10 -1.12018e-10 -1.01443e-10 -9.19691e-11 -9.63872e-11 -1.12566e-10 -1.24055e-10 -1.29288e-10 -1.2424e-10 -8.92423e-11 -6.87088e-11 -4.55346e-11 -2.59193e-11 -1.23527e-11 -1.09813e-11 -1.80814e-11 -2.27041e-11 -2.30217e-11 -1.74722e-11 -4.92202e-11 -1.57602e-11 2.65848e-11 5.76271e-11 7.1751e-11 7.40791e-11 7.26889e-11 7.35864e-11 7.65505e-11 8.0024e-11 -4.96143e-11 2.85789e-11 1.21075e-10 1.61321e-10 1.64091e-10 1.56917e-10 1.5799e-10 1.6859e-10 1.75764e-10 1.77401e-10 -1.90502e-10 1.03736e-10 2.82331e-10 3.24178e-10 2.42929e-10 2.03138e-10 2.44965e-10 2.6781e-10 2.81453e-10 2.83975e-10 -7.82958e-10 2.5564e-10 6.98628e-10 6.91765e-10 2.29169e-10 -1.97088e-11 1.24313e-10 1.88689e-10 2.24554e-10 2.3343e-10 -1.11971e-09 4.02258e-10 1.05477e-09 9.54196e-10 1.20386e-10 -3.70253e-10 -1.79376e-10 -5.21002e-11 1.96717e-11 3.95602e-11 -7.91695e-10 5.6475e-10 1.12995e-09 9.08286e-10 -7.97306e-11 -6.45497e-10 -4.20291e-10 -2.4016e-10 -1.34203e-10 -1.02397e-10 -3.95616e-10 7.84612e-10 1.19273e-09 8.18984e-10 -3.49486e-10 -9.34449e-10 -5.89376e-10 -3.51115e-10 -2.14493e-10 -1.7259e-10 -8.03723e-11 9.57035e-10 1.25695e-09 7.74001e-10 -5.36732e-10 -1.11512e-09 -6.47114e-10 -3.61261e-10 -2.02022e-10 -1.52196e-10 
</DataArray>
<DataArray Name="Stress_11" format="ascii" type="Float64">
-19.3432 -18.2977 -17.9913 -19.4699 -21.6953 -34.4988 -36.0149 -37.0274 -37.9902 -38.9405 -2.18978 -1.59904 -1.79624 -3.62989 -6.09626 -9.89742 -10.3786 -11.4059 -12.0993 -12.7132 14.5629 14.1872 13.44 12.8729 11.0395 15.2393 14.5274 14.3824 13.7461 12.9062 30.0652 24.5489 20.4848 23.0294 27.7641 40.5406 41.199 40.6115 39.7057 38.5009 36.9015 20.1598 11.4541 12.4512 24.9612 72.1638 69.4309 67.4196 65.8344 64.6596 3.86779e+09 3.86779e+09 3.86779e+09 3.86779e+09 3.86779e+09 1.81643e-07 1.28202e-07 1.06671e-07 9.40999e-08 8.98447e-08 3.86779e+09 3.86779e+09 3.86779e+09 3.86779e+09 3.86779e+09 1.40807e-07 1.33989e-07 1.17291e-07 1.02159e-07 8.15268e-08 3.86779e+09 3.86779e+09 3.86779e+09 3.86779e+09 3.86779e+09 1.25645e-07 1.20374e-07 1.18496e-07 1.06979e-07 9.74451e-08 3.86779e+09 3.86779e+09 3.86779e+09 3.86779e+09 3.86779e+09 1.22208e-07 1.30877e-07 1.24177e-07 1.17466e-07 1.12522e-07 3.86779e+09 3.86779e+09 3.86779e+09 3.86779e+09 3.86779e+09 1.81908e-07 1.46664e-07 1.33085e-07 1.2868e-07 1.28506e-07 
</DataArray>
<DataArray Name="Stress_22" format="ascii" type="Float64">
-19.5332 -20.6751 -21.6096 -21.5073 -24.3945 -24.1512 -26.5963 -27.4406 -28.1587 -28.8033 -0.761662 -4.48056 -6.52089 -5.46766 -3.88596 -6.34076 -7.11742 -8.01795 -8.69902 -9.26372 19.902 11.013 6.66658 9.32456 18.4767 11.8022 11.9302 11.7034 10.9028 10.0373 42.5911 26.6038 19.5632 21.8011 41.0873 30.1868 31.6743 31.1274 30.2686 29.1692 66.0593 43.4023 35.9792 34.4798 57.355 50.837 50.647 50.0245 49.2283 48.3744 -4.69267e+08 -4.69267e+08 -4.69267e+08 -4.69267e+08 -4.69267e+08 1.28864e-07 3.32707e-08 2.60852e-08 2.92524e-08 6.09003e-08 -4.69267e+08 -4.69267e+08 -4.69267e+08 -4.69267e+08 -4.69267e+08 7.64322e-08 7.71071e-08 6.02545e-08 6.31055e-08 6.16198e-08 -4.69267e+08 -4.69267e+08 -4.69267e+08 -4.69267e+08 -4.69267e+08 9.78878e-08 1.0376e-07 9.47087e-08 8.75771e-08 7.94259e-08 -4.69267e+08 -4.69267e+08 -4.69267e+08 -4.69267e+08 -4.69267e+08 1.33698e-07 1.27912e-07 1.15234e-07 1.09663e-07 1.03256e-07 -4.69267e+08 -4.69267e+08 -4.69267e+08 -4.69267e+08 -4.69267e+08 1.72712e-07 1.31948e-07 1.31209e-07 1.28475e-07 1.26601e-07 
</DataArray>
<DataArray Name="Stress_12" format="ascii" type="Float64">
-0.619889 -0.913139 0.101033 0.815338 0.644716 0.594005 0.142061 0.134089 0.163254 0.183291 -1.85716 -2.21074 0.300053 2.96843 2.19371 -0.0226408 0.497061 0.293941 0.0384281 -0.112706 -3.18032 -3.53211 -0.118714 4.05816 3.59745 -0.132191 0.214057 -0.0403197 -0.246822 -0.219316 -3.37001 -3.16493 -1.67665 1.19102 4.39452 -0.086478 -0.681874 -0.628609 -0.413576 -0.221042 1.67955 1.85888 -2.95393 -7.75986 -4.97336 -1.86486 -1.35766 -0.728075 -0.24661 0.0769507 4.49749 4.20754 -0.537291 -6.25718 -9.09098 -1.95172e-08 -1.50705e-08 -2.10106e-08 -2.64416e-08 -3.13607e-08 -1.03866 2.13251 1.55149 0.706014 4.1708 -4.92941e-09 6.36419e-09 -6.48726e-09 -1.48394e-08 -8.61568e-09 -2.76673 0.825518 2.72819 4.30288 6.0642 3.54964e-09 2.56202e-09 1.41211e-11 -1.87981e-09 -2.89429e-10 -2.45834 0.920718 2.91137 4.18442 5.48144 -5.52299e-09 -7.77574e-09 2.14771e-10 3.11025e-09 2.61158e-09 -3.16135 0.384276 1.91726 2.91925 4.89832 -3.44757e-08 -7.01716e-09 4.4361e-10 2.72345e-09 1.71934e-09 
</DataArray>
<DataArray Name="Stress_13" format="ascii" type="Float64">
2.73438e+10 2.73438e+10 2.73438e+10 2.73438e+10 2.73438e+10 6e+09 6e+09 6e+09 6e+09 6e+09 2.73438e+10 2.73438e+10 2.73438e+10 2.73438e+10 2.73438e+10 6e+09 6e+09 6e+09 6e+09 6e+09 2.73438e+10 2.73438e+10 2.73438e+10 2.73438e+10 2.73438e+10 6e+09 6e+09 6e+09 6e+09 6e+09 2.73438e+10 2.73438e+10 2.73438e+10 2.73438e+10 2.73438e+10 6e+09 6e+09 6e+09 6e+09 6e+09 2.73438e+10 2.73438e+10 2.73438e+10 2.73438e+10 2.73438e+10 6e+09 6e+09 6e+09 6e+09 6e+09 1.58203e+10 1.58203e+10 1.58203e+10 1.58203e+10 1.58203e+10 27.3438 27.3438 27.3438 27.3438 27.3438 1.58203e+10 1.58203e+10 1.58203e+10 1.58203e+10 1.58203e+10 27.3438 27.3438 27.3438 27.3438 27.3438 1.58203e+10 1.58203e+10 1.58203e+10 1.58203e+10 1.58203e+10 27.3438 27.3438 27.3438 27.3438 27.3438 1.58203e+10 1.58203e+10 1.58203e+10 1.58203e+10 1.58203e+10 27.3438 27.3438 27.3438 27.3438 27.3438 1.58203e+10 1.58203e+10 1.58203e+10 1.58203e+10 1.58203e+10 27.3438 27.3438 27.3438 27.3438 27.3438 
</DataArray>
<DataArray Name="Stress_23" format="ascii" type="Float64">
-77.5826 -37.1661 35.1291 111.024 171.067 48.7485 73.1523 93.6723 111.078 123.673 50.471 31.0636 51.4532 82.0744 98.6183 34.1958 62.4633 83.9844 98.2768 103.878 96.6903 58.8714 54.9524 62.8518 63.3469 27.8764 57.9528 79.8616 92.3253 94.0156 80.4251 44.8379 43.6645 47.8682 44.9955 26.6174 60.2787 83.6441 96.0827 95.9178 -14.7114 -2.70597 20.81 40.2293 28.3332 32.0582 73.5416 93.7615 109.964 116.705 50.3134 30.5762 -9.87191 -60.4294 -120.114 -8.59358e-07 -8.65411e-07 -9.48625e-07 -1.11643e-06 -1.33496e-06 45.0912 23.8933 -1.60216 -28.8841 -47.1295 -4.17921e-07 -5.65404e-07 -6.53495e-07 -7.7034e-07 -9.1235e-07 43.5397 24.3723 6.73842 -9.0091 -22.7636 -2.10141e-07 -2.71276e-07 -3.28045e-07 -4.03559e-07 -5.11508e-07 37.075 21.1695 10.2817 0.983512 -9.09761 -5.01031e-08 2.34711e-09 1.25688e-08 -8.83723e-09 -8.06302e-08 4.2137 2.40376 7.89486 13.9853 15.029 1.62328e-07 2.9271e-07 3.64441e-07 4.23373e-07 4.3697e-07 
</DataArray>
<DataArray Name="Stress_33" format="ascii" type="Float64">
-20.6743 -19.6371 -18.9295 -18.5747 -19.343 -61.1261 -66.089 -68.4055 -70.2705 -71.6193 -7.07336 -6.5119 -5.51621 -4.36167 -3.65971 -16.1053 -17.7599 -19.886 -21.3041 -22.2766 6.20476 5.95286 7.49077 10.2492 13.2871 29.7354 29.3123 28.9447 27.5452 25.929 16.8708 16.3233 19.6887 23.845 30.7648 75.925 78.3954 77.6678 76.159 73.8917 15.4939 25.0589 33.0445 35.8332 40.0536 128.336 127.713 126.309 124.631 122.74 3.29861e+10 3.29861e+10 3.29861e+10 3.29861e+10 3.29861e+10 8.55623e-08 5.39144e-08 5.038e-08 5.02575e-08 5.85487e-08 3.29861e+10 3.29861e+10 3.29861e+10 3.29861e+10 3.29861e+10 3.49093e-08 4.65505e-08 4.60657e-08 4.76511e-08 4.28503e-08 3.29861e+10 3.29861e+10 3.29861e+10 3.29861e+10 3.29861e+10 1.74043e-08 3.33373e-08 4.28861e-08 4.50815e-08 4.23561e-08 3.29861e+10 3.29861e+10 3.29861e+10 3.29861e+10 3.29861e+10 6.24245e-09 3.12047e-08 4.24569e-08 4.85816e-08 4.83366e-08 3.29861e+10 3.29861e+10 3.29861e+10 3.29861e+10 3.29861e+10 2.12351e-08 3.27131e-08 4.87139e-08 5.78618e-08 6.07762e-08 
</DataArray>
</CellData>
<Points>
<DataArray NumberOfComponents="3" format="ascii" type="Float64">
-0.05 -0.05 0 -0.04 -0.05 0 -0.03 -0.05 0 -0.02 -0.05 0 -0.01 -0.05 0 0 -0.05 0 0.01 -0.05 0 0.02 -0.05 0 0.03 -0.05 0 0.04 -0.05 0 0.05 -0.05 0 -0.05 -0.04 0 -0.04 -0.04 0 -0.03 -0.04 0 -0.02 -0.04 0 -0.01 -0.04 0 0 -0.04 0 0.01 -0.04 0 0.02 -0.04 0 0.03 -0.04 0 0.04 -0.04 0 0.05 -0.04 0 -0.05 -0.03 0 -0.04 -0.03 0 -0.03 -0.03 0 -0.02 -0.03 0 -0.01 -0.03 0 0 -0.03 0 0.01 -0.03 0 0.02 -0.03 0 0.03 -0.03 0 0.04 -0.03 0 0.05 -0.03 0 -0.05 -0.02 0 -0.04 -0.02 0 -0.03 -0.02 0 -0.02 -0.02 0 -0.01 -0.02 0 0 -0.02 0 0.01 -0.02 0 0.02 -0.02 0 0.03 -0.02 0 0.04 -0.02 0 0.05 -0.02 0 -0.05 -0.01 0 -0.04 -0.01 0 -0.03 -0.01 0 -0.02 -0.01 0 -0.01 -0.01 0 0 -0.01 0 0.01 -0.01 0 0.02 -0.01 0 0.03 -0.01 0 0.04 -0.01 0 0.05 -0.01 0 -0.05 0 0 -0.04 0 0 -0.03 0 0 -0.02 0 0 -0.01 0 0 0 0 0 0.01 0 0 0.02 0 0 0.03 0 0 0.04 0 0 0.05 0 0 -0.05 0.01 0 -0.04 0.01 0 -0.03 0.01 0 -0.02 0.01 0 -0.01 0.01 0 0 0.01 0 0.01 0.01 0 0.02 0.01 0 0.03 0.01 0 0.04 0.01 0 0.05 0.01 0 -0.05 0.02 0 -0.04 0.02 0 -0.03 0.02 0 -0.02 0.02 0 -0.01 0.02 0 0 0.02 0 0.01 0.02 0 0.02 0.02 0 0.03 0.02 0 0.04 0.02 0 0.05 0.02 0 -0.05 0.03 0 -0.04 0.03 0 -0.03 0.03 0 -0.02 0.03 0 -0.01 0.03 0 0 0.03 0 0.01 0.03 0 0.02 0.03 0 0.03 0.03 0 0.04 0.03 0 0.05 0.03 0 -0.05 0.04 0 -0.04 0.04 0 -0.03 0.04 0 -0.02 0.04 0 -0.01 0.04 0 0 0.04 0 0.01 0.04 0 0.02 0.04 0 0.03 0.04 0 0.04 0.04 0 0.05 0.04 0 -0.05 0.05 0 -0.04 0.05 0 -0.03 0.05 0 -0.02 0.05 0 -0.01 0.05 0 0 0.05 0 0.01 0.05 0 0.02 0.05 0 0.03 0.05 0 0.04 0.05 0 0.05 0.05 0 
</DataArray>
</Points>
<Cells>
<DataArray Name="connectivity" format="ascii" type="Int64">
0 1 12 11 1 2 13 12 2 3 14 13 3 4 15 14 4 5 16 15 5 6 17 16 6 7 18 17 7 8 19 18 8 9 20 19 9 10 21 20 11 12 23 22 12 13 24 23 13 14 25 24 14 15 26 25 15 16 27 26 16 17 28 27 17 18 29 28 18 19 30 29 19 20 31 30 20 21 32 31 22 23 34 33 23 24 35 34 24 25 36 35 25 26 37 36 26 27 38 37 27 28 39 38 28 29 40 39 29 30 41 40 30 31 42 41 31 32 43 42 33 34 45 44 34 35 46 45 35 36 47 46 36 37 48 47 37 38 49 48 38 39 50 49 39 40 51 50 40 41 52 51 41 42 53 52 42 43 54 53 44 45 56 55 45 46 57 56 46 47 58 57 47 48 59 58 48 49 60 59 49 50 61 60 50 51 62 61 51 52 63 62 52 53 64 63 53 54 65 64 55 56 67 66 56 57 68 67 57 58 69 68 58 59 70 69 59 60 71 70 60 61 72 71 61 62 73 72 62 63 74 73 63 64 75 74 64 65 76 75 66 67 78 77 67 68 79 78 68 69 80 79 69 70 81 80 70 71 82 81 71 72 83 82 72 73 84 83 73 74 85 84 74 75 86 85 75 76 87 86 77 78 89 88 78 79 90 89 79 80 91 90 80 81 92 91 81 82 93 92 82 83 94 93 83 84 95 94 84 85 96 95 85 86 97 96 86 87 98 97 88 89 100 99 89 90 101 100 90 91 102 101 91 92 103 102 92 93 104 103 93 94 105 104 94 95 106 105 95 96 107 106 96 97 108 107 97 98 109 108 99 100 111 110 100 101 112 111 101 102 113 112 102 103 114 113 103 104 115 114 104 105 116 115 105 106 117 116 106 107 118 117 107 108 119 118 108 109 120 119 
</DataArray>
<DataArray Name="offsets" format="ascii" type="Int64">
4 8 12 16 20 24 28 32 36 40 44 48 52 56 60 64 68 72 76 80 84 88 92 96 100 104 108 112 116 120 124 128 132 136 140 144 148 152 156 160 164 168 172 176 180 184 188 192 196 200 204 208 212 216 220 224 228 232 236 240 244 248 252 256 260 264 268 272 276 280 284 288 292 296 300 304 308 312 316 320 324 328 332 336 340 344 348 352 356 360 364 368 372 376 380 384 388 392 396 400 
</DataArray>
<DataArray Name="types" format="ascii" type="Int8">
9 9 9 9 9 9 9 9 9 9 9 9 9 9 9 9 9 9 9 9 9 9 9 9 9 9 9 9 9 9 9 9 9 9 9 9 9 9 9 9 9 9 9 9 9 9 9 9 9 9 9 9 9 9 9 9 9 9 9 9 9 9 9 9 9 9 9 9 9 9 9 9 9 9 9 9 9 9 9 9 9 9 9 9 9 9 9 9 9 9 9 9 9 9 9 9 9 9 9 9 
</DataArray>
</Cells>
</Piece>
</UnstructuredGrid>
</VTKFile>
