<?xml version="1.0"?>
<VTKFile byte_order="LittleEndian" type="UnstructuredGrid" version="0.1">
<UnstructuredGrid>
<Piece NumberOfCells="100" NumberOfPoints="121">
<PointData>
<DataArray Name="Warping_X" format="ascii" type="Float64">
-1.16147e-09 -1.62862e-09 -1.99643e-09 -2.27955e-09 -2.49596e-09 -2.65598e-09 -2.74419e-09 -2.42359e-09 -1.70732e-09 -6.69192e-10 6.40419e-10 -6.53547e-10 -1.08988e-09 -1.41917e-09 -1.6409e-09 -1.75095e-09 -1.75644e-09 -1.3882e-09 -7.80002e-10 1.09496e-10 1.27482e-09 2.69775e-09 -2.52244e-10 -6.55024e-10 -9.41642e-10 -1.10844e-09 -1.161e-09 -1.12204e-09 -5.38059e-10 3.17328e-10 1.3756e-09 2.6492e-09 4.15846e-09 3.6764e-11 -3.37674e-10 -5.92408e-10 -7.29312e-10 -7.52435e-10 -6.84116e-10 2.12676e-11 9.69029e-10 2.10214e-09 3.45018e-09 5.0383e-09 2.17222e-10 -1.29094e-10 -3.74293e-10 -5.12813e-10 -5.33461e-10 -4.51187e-10 2.84281e-10 1.15104e-09 2.28106e-09 3.68507e-09 5.34758e-09 3.79226e-10 -1.30132e-11 -2.81759e-10 -4.3639e-10 -4.98211e-10 -4.87109e-10 -3.7258e-11 7.41721e-10 1.89814e-09 3.36926e-09 5.12192e-09 3.27692e-10 -2.79396e-11 -3.16572e-10 -4.79129e-10 -5.03007e-10 -3.25602e-10 1.03416e-10 7.76297e-10 1.60298e-09 2.51755e-09 3.31154e-09 4.09942e-11 -2.43611e-10 -4.54997e-10 -5.60586e-10 -5.28964e-10 -3.52153e-10 1.87481e-13 5.22323e-10 1.14632e-09 1.82135e-09 2.63412e-09 -3.39498e-10 -5.92677e-10 -7.38697e-10 -7.74461e-10 -6.88909e-10 -4.73634e-10 -2.44775e-10 1.37692e-10 6.31502e-10 1.2587e-09 2.02895e-09 -8.50028e-10 -1.06346e-09 -1.15159e-09 -1.11945e-09 -9.74179e-10 -7.21585e-10 -6.38291e-10 -4.31168e-10 -2.56497e-11 5.68099e-10 1.32773e-09 -1.51349e-09 -1.6748e-09 -1.69333e-09 -1.58917e-09 -1.37513e-09 -1.07051e-09 -1.42852e-09 -1.35834e-09 -9.7325e-10 -3.4847e-10 4.41287e-10 
</DataArray>
<DataArray Name="Warping_Y" format="ascii" type="Float64">
2.20206e-09 1.62678e-09 1.03019e-09 3.98881e-10 -2.98413e-10 -1.19482e-09 -3.02847e-09 -4.94114e-09 -6.99479e-09 -9.14978e-09 -1.14455e-08 1.69326e-09 1.22844e-09 7.42459e-10 2.26246e-10 -3.55741e-10 -1.06527e-09 -2.25686e-09 -3.73907e-09 -5.31175e-09 -6.94957e-09 -8.66706e-09 1.20981e-09 8.5177e-10 4.69905e-10 6.06504e-11 -3.94454e-10 -9.18229e-10 -1.67696e-09 -2.5835e-09 -3.58348e-09 -4.64775e-09 -5.7836e-09 7.54977e-10 4.98303e-10 2.16347e-10 -8.29213e-11 -3.98752e-10 -7.31127e-10 -1.07845e-09 -1.39509e-09 -1.75799e-09 -2.22199e-09 -2.77733e-09 3.40175e-10 1.70257e-10 -2.58895e-12 -1.89842e-10 -3.74337e-10 -5.08761e-10 -3.08807e-10 1.80118e-11 2.37644e-10 3.46549e-10 3.56624e-10 -2.9387e-11 -1.12526e-10 -1.71524e-10 -2.43024e-10 -3.15032e-10 -2.41249e-10 9.11969e-10 1.70956e-09 2.42429e-09 3.04973e-09 3.62271e-09 -4.48239e-10 -3.62747e-10 -2.78095e-10 -2.17217e-10 -1.53723e-10 -1.51801e-10 8.5385e-10 1.69184e-09 2.44093e-09 3.13242e-09 4.02845e-09 -9.03529e-10 -5.86409e-10 -3.53549e-10 -1.66372e-10 -2.60803e-11 3.63012e-11 9.54339e-10 1.86516e-09 2.74087e-09 3.61277e-09 4.3998e-09 -1.28512e-09 -8.11965e-10 -4.26212e-10 -1.13231e-10 1.30997e-10 2.90196e-10 1.19247e-09 2.20019e-09 3.21327e-09 4.16724e-09 4.95691e-09 -1.61947e-09 -1.01386e-09 -4.94278e-10 -5.29746e-11 3.11391e-10 5.91576e-10 1.54899e-09 2.6816e-09 3.78868e-09 4.81335e-09 5.69434e-09 -1.92204e-09 -1.19552e-09 -5.55498e-10 1.31662e-11 5.11404e-10 9.26821e-10 2.10325e-09 3.27046e-09 4.44247e-09 5.53619e-09 6.52556e-09 
</DataArray>
<DataArray Name="Warping_Z" format="ascii" type="Float64">
0 0 0 0 0 0 0 0 0 0 0 0 0 0 0 0 0 0 0 0 0 0 0 0 0 0 0 0 0 0 0 0 0 0 0 0 0 0 0 0 0 0 0 0 0 0 0 0 0 0 0 0 0 0 0 0 0 0 0 0 0 0 0 0 0 0 0 0 0 0 0 0 0 0 0 0 0 0 0 0 0 0 0 0 0 0 0 0 0 0 0 0 0 0 0 0 0 0 0 0 0 0 0 0 0 0 0 0 0 0 0 0 0 0 0 0 0 0 0 0 0 
</DataArray>
</PointData>
<CellData>
<DataArray Name="MaterialId" format="ascii" type="Float64">
1 1 1 1 1 2 2 2 2 2 1 1 1 1 1 2 2 2 2 2 1 1 1 1 1 2 2 2 2 2 1 1 1 1 1 2 2 2 2 2 1 1 1 1 1 2 2 2 2 2 3 3 3 3 3 4 4 4 4 4 3 3 3 3 3 4 4 4 4 4 3 3 3 3 3 4 4 4 4 4 3 3 3 3 3 4 4 4 4 4 3 3 3 3 3 4 4 4 4 4 
</DataArray>
<DataArray Name="FiberAngle" format="ascii" type="Float64">
0 0 0 0 0 0 0 0 0 0 0 0 0 0 0 0 0 0 0 0 0 0 0 0 0 0 0 0 0 0 0 0 0 0 0 0 0 0 0 0 0 0 0 0 0 0 0 0 0 0 17 17 17 17 17 0 0 0 0 0 17 17 17 17 17 0 0 0 0 0 17 17 17 17 17 0 0 0 0 0 17 17 17 17 17 0 0 0 0 0 17 17 17 17 17 0 0 0 0 0 
</DataArray>
<DataArray Name="Strain_11" format="ascii" type="Float64">
-4.51737e-08 -3.48553e-08 -2.52425e-08 -1.63233e-08 -8.27554e-09 1.40021e-08 4.64398e-08 8.02883e-08 1.10173e-07 1.36627e-07 -4.19556e-08 -3.07952e-08 -1.94266e-08 -8.1306e-09 1.67331e-09 4.76113e-08 7.31792e-08 9.73883e-08 1.21947e-07 1.46609e-07 -3.88609e-08 -2.70676e-08 -1.51851e-08 -3.78416e-09 5.36388e-09 6.44683e-08 9.01574e-08 1.09569e-07 1.31082e-07 1.54869e-07 -3.60377e-08 -2.49966e-08 -1.37713e-08 -2.1885e-09 7.52964e-09 7.20425e-08 9.0726e-08 1.13157e-07 1.37602e-07 1.62532e-07 -3.69277e-08 -2.56972e-08 -1.46576e-08 -4.12344e-09 4.66877e-09 5.92659e-08 8.22869e-08 1.14322e-07 1.43756e-07 1.70759e-07 -3.73936e-08 -2.78689e-08 -1.58593e-08 -4.28498e-09 9.42533e-09 4.39435e-08 7.2593e-08 9.91555e-08 1.19284e-07 1.27333e-07 -3.20118e-08 -2.50009e-08 -1.34073e-08 3.87213e-10 1.77108e-08 3.90679e-08 5.97509e-08 7.25341e-08 7.94797e-08 8.03383e-08 -2.68892e-08 -1.78703e-08 -7.06768e-09 5.85876e-09 1.96043e-08 2.90599e-08 4.52302e-08 5.58903e-08 6.51114e-08 7.91511e-08 -2.33307e-08 -1.17074e-08 -1.81263e-10 1.15412e-08 2.33934e-08 1.56076e-08 2.94795e-08 4.49664e-08 6.10474e-08 7.64937e-08 -1.87372e-08 -5.33315e-09 6.81498e-09 1.79656e-08 2.78606e-08 -1.37357e-08 1.38653e-08 3.95303e-08 6.09264e-08 7.74693e-08 
</DataArray>
<DataArray Name="Strain_22" format="ascii" type="Float64">
-4.53575e-08 -3.43035e-08 -2.3018e-08 -1.14981e-08 3.61113e-09 4.50576e-08 9.86837e-08 1.44255e-07 1.94163e-07 2.48933e-07 -4.30055e-08 -3.2461e-08 -2.19075e-08 -1.02154e-08 5.41642e-09 3.63474e-08 8.67741e-08 1.44192e-07 2.01504e-07 2.59264e-07 -4.04151e-08 -3.03512e-08 -1.98565e-08 -7.39348e-09 9.14016e-09 3.92806e-08 8.93461e-08 1.50695e-07 2.12562e-07 2.71602e-07 -3.71424e-08 -2.73491e-08 -1.62929e-08 -4.12531e-09 1.23391e-08 4.96003e-08 1.09137e-07 1.70437e-07 2.28209e-07 2.85124e-07 -3.26173e-08 -2.25859e-08 -1.11059e-08 3.06182e-10 1.63409e-08 7.44144e-08 1.45616e-07 1.9391e-07 2.44491e-07 2.98463e-07 -3.34537e-08 -1.78396e-08 -4.03818e-09 9.35583e-09 1.25379e-08 1.56643e-09 -3.79202e-09 -5.43252e-11 4.96653e-09 2.44216e-08 -3.39476e-08 -1.49558e-08 -1.23047e-09 8.92434e-09 1.57872e-08 1.44296e-08 1.36905e-08 2.36634e-08 3.90144e-08 4.25848e-08 -3.03573e-08 -1.49109e-08 -9.76097e-10 1.05109e-08 2.05486e-08 2.46013e-08 2.86581e-08 4.03713e-08 5.13434e-08 5.55791e-08 -2.68121e-08 -1.3498e-08 -3.90461e-10 1.20325e-08 2.40887e-08 3.28948e-08 4.18965e-08 5.28411e-08 6.10759e-08 6.91771e-08 -2.42116e-08 -1.21438e-08 2.46052e-10 1.33077e-08 2.67629e-08 4.44755e-08 5.71559e-08 6.21322e-08 6.88317e-08 7.77031e-08 
</DataArray>
<DataArray Name="Strain_12" format="ascii" type="Float64">
3.2822e-10 1.67163e-09 3.42005e-09 5.21907e-09 1.93072e-09 -3.84857e-08 -1.97659e-08 -8.29619e-09 -1.59877e-09 -5.93984e-10 6.64843e-10 2.22684e-09 4.22585e-09 4.26609e-09 -4.47509e-10 -2.32889e-08 -2.20641e-08 -1.04613e-08 -3.08029e-09 -9.12414e-10 -4.17854e-10 1.38193e-10 9.91898e-10 8.37874e-10 -4.829e-10 -5.43974e-09 -6.07711e-10 7.67941e-10 -3.78244e-11 -5.18978e-10 -1.87772e-09 -1.40532e-09 -2.59539e-09 -3.24267e-09 -7.44811e-10 1.74288e-08 2.276e-08 1.08832e-08 2.9364e-09 -5.42348e-11 1.25136e-09 -1.1615e-09 -4.48981e-09 -7.24149e-09 -3.06567e-09 4.97856e-08 1.96777e-08 7.10634e-09 1.78049e-09 2.07961e-09 -3.20536e-09 -1.20428e-09 -4.40868e-09 -2.80243e-09 1.16208e-08 1.23052e-07 9.05416e-08 6.01618e-08 8.50292e-09 -5.96546e-08 -4.98787e-09 -1.82918e-09 1.40866e-09 4.81861e-09 5.89775e-10 8.96954e-08 6.95805e-08 4.57081e-08 2.05264e-08 1.54723e-08 3.0358e-09 -7.07712e-10 1.29126e-10 5.35053e-10 -2.99227e-09 7.26934e-08 6.44475e-08 4.94672e-08 3.74197e-08 2.04442e-08 4.87234e-09 1.08286e-09 -1.79933e-10 -1.0833e-09 -4.69196e-09 6.09109e-08 5.88982e-08 4.47071e-08 3.15441e-08 1.39426e-08 2.86685e-09 3.25849e-10 -7.49816e-11 -4.03647e-10 -2.71407e-09 4.97342e-08 2.91212e-08 2.02159e-08 1.27109e-08 3.36806e-09 
</DataArray>
<DataArray Name="Strain_13" format="ascii" type="Float64">
-1.69058e-09 -1.34986e-09 -1.17441e-09 -9.40464e-10 -9.54381e-10 1.838e-09 1.39778e-09 9.00068e-10 1.46522e-10 -1.1562e-09 -1.73688e-09 -2.36982e-09 -2.26503e-09 -1.65802e-09 -1.0553e-09 7.81023e-10 6.38999e-10 2.85544e-10 -2.22032e-10 -8.87861e-10 -2.2728e-09 -4.4192e-09 -4.04981e-09 -2.15863e-09 -6.66154e-10 2.00531e-10 7.75096e-11 -2.57002e-10 -3.35834e-10 -3.58859e-10 -4.16011e-09 -1.14785e-08 -7.02064e-09 -1.02861e-09 4.74522e-10 9.60379e-10 -1.17491e-09 -9.45245e-10 -4.89515e-10 1.62202e-10 -3.41866e-08 -2.4661e-08 -1.1058e-08 2.68865e-09 1.35612e-08 -5.60298e-09 -2.76243e-09 -1.80641e-09 -9.22185e-10 4.17672e-10 -1.39711e-07 -6.80084e-08 -2.05893e-08 2.19618e-08 7.05575e-08 -2.0782e-08 -8.02248e-09 -4.85266e-09 -2.32042e-09 5.45238e-10 -1.99904e-07 -1.04489e-07 -2.60136e-08 4.61286e-08 1.20633e-07 -2.25056e-08 -1.56698e-08 -9.78537e-09 -4.56901e-09 5.91318e-10 -1.7498e-07 -9.63086e-08 -1.67323e-08 6.1066e-08 1.36537e-07 -2.33841e-08 -2.16571e-08 -1.4369e-08 -6.8225e-09 4.61311e-10 -1.56482e-07 -7.95635e-08 -2.06056e-09 7.68103e-08 1.56884e-07 -3.9891e-08 -2.91236e-08 -1.85286e-08 -8.79583e-09 4.15153e-10 -1.39388e-07 -6.80939e-08 8.11015e-09 8.84804e-08 1.73666e-07 -5.79885e-08 -3.56127e-08 -2.1558e-08 -1.02898e-08 3.2464e-10 
</DataArray>
<DataArray Name="Strain_23" format="ascii" type="Float64">
-5.11111e-09 -5.60469e-09 -6.49837e-09 -7.35836e-09 -7.9074e-09 -8.65485e-09 -9.66377e-09 -1.04472e-08 -1.11069e-08 -1.13889e-08 -5.00868e-09 -5.58135e-09 -6.79825e-09 -7.74645e-09 -8.01589e-09 -8.42634e-09 -9.23318e-09 -9.82304e-09 -1.01465e-08 -9.96469e-09 -2.99573e-09 -5.00836e-09 -7.62563e-09 -8.96283e-09 -8.80485e-09 -8.58574e-09 -8.92088e-09 -9.43505e-09 -9.76797e-09 -9.53455e-09 3.07455e-09 -3.85946e-09 -1.12723e-08 -1.1776e-08 -9.66325e-09 -7.98183e-09 -8.13926e-09 -9.56575e-09 -1.00748e-08 -9.94079e-09 2.51029e-08 -1.11721e-08 -2.0979e-08 -2.07955e-08 -6.1043e-09 -1.26245e-09 -9.2559e-09 -1.02781e-08 -1.10629e-08 -1.13741e-08 9.33883e-08 -1.92086e-08 -6.22803e-08 -5.27219e-08 8.85638e-09 4.58319e-08 3.33863e-08 2.61022e-08 2.24425e-08 2.1483e-08 -2.60383e-08 -1.01152e-08 -8.94842e-09 2.35713e-10 1.29002e-08 2.4277e-08 2.73516e-08 2.20557e-08 1.8534e-08 1.7291e-08 -3.95641e-08 -2.23832e-08 -6.08825e-09 8.94632e-09 2.71231e-08 3.07718e-08 2.08314e-08 1.55564e-08 1.22409e-08 1.11004e-08 -3.96517e-08 -2.15892e-08 -6.4673e-09 8.91414e-09 2.6828e-08 2.70187e-08 1.29856e-08 6.63459e-09 3.81712e-09 2.93811e-09 -2.3397e-08 -1.28956e-08 -6.37705e-09 8.23266e-11 1.06212e-08 9.11557e-09 -1.43798e-09 -4.60541e-09 -6.31129e-09 -7.01675e-09 
</DataArray>
<DataArray Name="Strain_33" format="ascii" type="Float64">
0.045 0.035 0.025 0.015 0.005 -0.005 -0.015 -0.025 -0.035 -0.045 0.045 0.035 0.025 0.015 0.005 -0.005 -0.015 -0.025 -0.035 -0.045 0.045 0.035 0.025 0.015 0.005 -0.005 -0.015 -0.025 -0.035 -0.045 0.045 0.035 0.025 0.015 0.005 -0.005 -0.015 -0.025 -0.035 -0.045 0.045 0.035 0.025 0.015 0.005 -0.005 -0.015 -0.025 -0.035 -0.045 0.045 0.035 0.025 0.015 0.005 -0.005 -0.015 -0.025 -0.035 -0.045 0.045 0.035 0.025 0.015 0.005 -0.005 -0.015 -0.025 -0.035 -0.045 0.045 0.035 0.025 0.015 0.005 -0.005 -0.015 -0.025 -0.035 -0.045 0.045 0.035 0.025 0.015 0.005 -0.005 -0.015 -0.025 -0.035 -0.045 0.045 0.035 0.025 0.015 0.005 -0.005 -0.015 -0.025 -0.035 -0.045 
</DataArray>
<DataArray Name="Stress_11" format="ascii" type="Float64">
1.56605e+09 1.21804e+09 8.70025e+08 5.22015e+08 1.74005e+08 -2.59138e+08 -7.77416e+08 -1.29569e+09 -1.81397e+09 -2.33225e+09 1.56605e+09 1.21804e+09 8.70026e+08 5.22016e+08 1.74006e+08 -2.59137e+08 -7.77415e+08 -1.29569e+09 -1.81397e+09 -2.33225e+09 1.56605e+09 1.21804e+09 8.70026e+08 5.22016e+08 1.74006e+08 -2.59137e+08 -7.77414e+08 -1.29569e+09 -1.81397e+09 -2.33225e+09 1.56605e+09 1.21804e+09 8.70027e+08 5.22017e+08 1.74007e+08 -2.59136e+08 -7.77414e+08 -1.29569e+09 -1.81397e+09 -2.33225e+09 1.56605e+09 1.21804e+09 8.70027e+08 5.22017e+08 1.74007e+08 -2.59136e+08 -7.77414e+08 -1.29569e+09 -1.81397e+09 -2.33225e+09 6.65608e+08 5.17695e+08 3.69783e+08 2.2187e+08 7.39571e+07 -0.174002 -0.522011 -0.87002 -1.21803 -1.56604 6.65608e+08 5.17695e+08 3.69783e+08 2.2187e+08 7.39574e+07 -0.174002 -0.522011 -0.870021 -1.21803 -1.56604 6.65608e+08 5.17695e+08 3.69783e+08 2.2187e+08 7.39576e+07 -0.174002 -0.522012 -0.870022 -1.21803 -1.56604 6.65608e+08 5.17696e+08 3.69783e+08 2.2187e+08 7.39577e+07 -0.174003 -0.522013 -0.870023 -1.21803 -1.56604 6.65608e+08 5.17696e+08 3.69783e+08 2.2187e+08 7.39579e+07 -0.174005 -0.522014 -0.870023 -1.21803 -1.56604 
</DataArray>
<DataArray Name="Stress_22" format="ascii" type="Float64">
1.56605e+09 1.21804e+09 8.70025e+08 5.22015e+08 1.74006e+08 -1.96235e+08 -5.88707e+08 -9.81179e+08 -1.37365e+09 -1.76612e+09 1.56605e+09 1.21804e+09 8.70026e+08 5.22016e+08 1.74006e+08 -1.96235e+08 -5.88707e+08 -9.81178e+08 -1.37365e+09 -1.76612e+09 1.56605e+09 1.21804e+09 8.70026e+08 5.22016e+08 1.74007e+08 -1.96235e+08 -5.88706e+08 -9.81178e+08 -1.37365e+09 -1.76612e+09 1.56605e+09 1.21804e+09 8.70026e+08 5.22017e+08 1.74007e+08 -1.96234e+08 -5.88706e+08 -9.81177e+08 -1.37365e+09 -1.76612e+09 1.56605e+09 1.21804e+09 8.70027e+08 5.22017e+08 1.74007e+08 -1.96234e+08 -5.88705e+08 -9.81177e+08 -1.37365e+09 -1.76612e+09 2.60314e+08 2.02467e+08 1.44619e+08 8.67718e+07 2.89241e+07 -0.174004 -0.522015 -0.870025 -1.21804 -1.56604 2.60315e+08 2.02467e+08 1.44619e+08 8.67718e+07 2.89242e+07 -0.174003 -0.522014 -0.870024 -1.21803 -1.56604 2.60315e+08 2.02467e+08 1.44619e+08 8.67719e+07 2.89243e+07 -0.174002 -0.522013 -0.870023 -1.21803 -1.56604 2.60315e+08 2.02467e+08 1.4462e+08 8.67719e+07 2.89243e+07 -0.174002 -0.522012 -0.870022 -1.21803 -1.56604 2.60315e+08 2.02467e+08 1.4462e+08 8.6772e+07 2.89244e+07 -0.174002 -0.522011 -0.870021 -1.21803 -1.56604 
</DataArray>
<DataArray Name="Stress_12" format="ascii" type="Float64">
8.97478 45.7086 93.5172 142.709 52.7932 -192.429 -98.8295 -41.4809 -7.99387 -2.96992 18.1793 60.8904 115.551 116.651 -12.2366 -116.444 -110.32 -52.3066 -15.4014 -4.56207 -11.4257 3.77873 27.1222 22.9107 -13.2043 -27.1987 -3.03856 3.8397 -0.189122 -2.59489 -51.3439 -38.4268 -70.9677 -88.6668 -20.366 87.1441 113.8 54.4162 14.682 -0.271174 34.2169 -31.7599 -122.768 -198.01 -83.827 248.928 98.3884 35.5317 8.90243 10.3981 42.058 -14.56 -48.8064 -38.3681 41.8014 3.36472e-06 2.47575e-06 1.64505e-06 2.32502e-07 -1.63118e-06 -30.3768 -11.4566 -0.537071 15.4114 9.08385 2.45261e-06 1.9026e-06 1.24983e-06 5.61269e-07 4.2307e-07 -12.4976 -14.7606 -2.99506 6.69935 5.67869 1.98771e-06 1.76224e-06 1.35262e-06 1.0232e-06 5.59021e-07 -6.72296 -8.6388 -4.18703 1.54961 0.123968 1.66554e-06 1.6105e-06 1.22246e-06 8.62536e-07 3.81244e-07 -3.99275 -6.17786 -3.80377 -1.23391 -2.66691 1.35992e-06 7.96284e-07 5.52779e-07 3.47565e-07 9.20957e-08 
</DataArray>
<DataArray Name="Stress_13" format="ascii" type="Float64">
-46.2269 -36.9103 -32.1127 -25.7158 -26.0964 11.028 8.38671 5.40041 0.879132 -6.9372 -47.4928 -64.7999 -61.9344 -45.3366 -28.856 4.68614 3.83399 1.71326 -1.33219 -5.32717 -62.147 -120.838 -110.737 -59.0252 -18.2152 1.20319 0.465058 -1.54201 -2.015 -2.15315 -113.753 -313.866 -191.971 -28.1262 12.9752 5.76228 -7.04945 -5.67147 -2.93709 0.973211 -934.791 -674.326 -302.368 73.5178 370.813 -33.6179 -16.5746 -10.8385 -5.53311 2.50603 1.48437e+09 1.15451e+09 8.24651e+08 4.94791e+08 1.64931e+08 -5.68258e-07 -2.19365e-07 -1.3269e-07 -6.3449e-08 1.49089e-08 1.48437e+09 1.15451e+09 8.24651e+08 4.94792e+08 1.64932e+08 -6.15389e-07 -4.28471e-07 -2.67569e-07 -1.24934e-07 1.61689e-08 1.48437e+09 1.15451e+09 8.24651e+08 4.94792e+08 1.64933e+08 -6.3941e-07 -5.92188e-07 -3.92902e-07 -1.86553e-07 1.2614e-08 1.48437e+09 1.15451e+09 8.24651e+08 4.94792e+08 1.64933e+08 -1.09077e-06 -7.9635e-07 -5.06641e-07 -2.40512e-07 1.13519e-08 1.48437e+09 1.15451e+09 8.24652e+08 4.94792e+08 1.64933e+08 -1.58563e-06 -9.73786e-07 -5.89476e-07 -2.81362e-07 8.8769e-09 
</DataArray>
<DataArray Name="Stress_23" format="ascii" type="Float64">
-139.757 -153.254 -177.69 -201.206 -216.218 -43.2743 -48.3189 -52.2361 -55.5343 -56.9444 -136.956 -152.615 -185.89 -211.817 -219.185 -42.1317 -46.1659 -49.1152 -50.7324 -49.8234 -81.9147 -136.948 -208.514 -245.078 -240.758 -42.9287 -44.6044 -47.1753 -48.8398 -47.6728 84.0698 -105.532 -308.229 -322 -264.23 -39.9092 -40.6963 -47.8287 -50.3738 -49.704 686.409 -305.486 -573.646 -568.628 -166.915 -6.31225 -46.2795 -51.3905 -55.3146 -56.8704 449.183 -93.4323 -303.219 -256.163 49.266 1.25322e-06 9.12908e-07 7.13733e-07 6.13664e-07 5.87428e-07 -128.529 -49.8696 -42.4245 3.8328 62.6253 6.63825e-07 7.47896e-07 6.03086e-07 5.0679e-07 4.72802e-07 -189.359 -108.485 -29.3282 43.5013 129.305 8.41418e-07 5.6961e-07 4.2537e-07 3.34713e-07 3.03528e-07 -188.755 -103.649 -31.3314 42.441 126.93 7.38793e-07 3.55076e-07 1.81415e-07 1.04375e-07 8.03391e-08 -111.382 -62.091 -30.837 0.171842 49.7724 2.49254e-07 -3.93199e-08 -1.2593e-07 -1.72575e-07 -1.91865e-07 
</DataArray>
<DataArray Name="Stress_33" format="ascii" type="Float64">
4.02699e+09 3.1321e+09 2.23721e+09 1.34233e+09 4.47443e+08 -6.4946e+08 -1.94838e+09 -3.2473e+09 -4.54622e+09 -5.84514e+09 4.02699e+09 3.1321e+09 2.23721e+09 1.34233e+09 4.47443e+08 -6.49458e+08 -1.94838e+09 -3.2473e+09 -4.54622e+09 -5.84514e+09 4.02699e+09 3.1321e+09 2.23721e+09 1.34233e+09 4.47444e+08 -6.49457e+08 -1.94838e+09 -3.2473e+09 -4.54622e+09 -5.84514e+09 4.02699e+09 3.1321e+09 2.23721e+09 1.34233e+09 4.47444e+08 -6.49457e+08 -1.94838e+09 -3.2473e+09 -4.54622e+09 -5.84514e+09 4.02699e+09 3.1321e+09 2.23722e+09 1.34233e+09 4.47444e+08 -6.49456e+08 -1.94838e+09 -3.2473e+09 -4.54622e+09 -5.84514e+09 5.60695e+09 4.36096e+09 3.11497e+09 1.86899e+09 6.22998e+08 -0.447442 -1.34233 -2.23721 -3.1321 -4.02698 5.60695e+09 4.36096e+09 3.11497e+09 1.86899e+09 6.22999e+08 -0.447441 -1.34233 -2.23721 -3.1321 -4.02698 5.60695e+09 4.36096e+09 3.11497e+09 1.86899e+09 6.23e+08 -0.447441 -1.34233 -2.23721 -3.1321 -4.02698 5.60695e+09 4.36096e+09 3.11497e+09 1.86899e+09 6.23001e+08 -0.447441 -1.34233 -2.23721 -3.1321 -4.02698 5.60695e+09 4.36096e+09 3.11498e+09 1.86899e+09 6.23001e+08 -0.447442 -1.34233 -2.23721 -3.1321 -4.02698 
</DataArray>
</CellData>
<Points>
<DataArray NumberOfComponents="3" format="ascii" type="Float64">
-0.05 -0.05 0 -0.04 -0.05 0 -0.03 -0.05 0 -0.02 -0.05 0 -0.01 -0.05 0 0 -0.05 0 0.01 -0.05 0 0.02 -0.05 0 0.03 -0.05 0 0.04 -0.05 0 0.05 -0.05 0 -0.05 -0.04 0 -0.04 -0.04 0 -0.03 -0.04 0 -0.02 -0.04 0 -0.01 -0.04 0 0 -0.04 0 0.01 -0.04 0 0.02 -0.04 0 0.03 -0.04 0 0.04 -0.04 0 0.05 -0.04 0 -0.05 -0.03 0 -0.04 -0.03 0 -0.03 -0.03 0 -0.02 -0.03 0 -0.01 -0.03 0 0 -0.03 0 0.01 -0.03 0 0.02 -0.03 0 0.03 -0.03 0 0.04 -0.03 0 0.05 -0.03 0 -0.05 -0.02 0 -0.04 -0.02 0 -0.03 -0.02 0 -0.02 -0.02 0 -0.01 -0.02 0 0 -0.02 0 0.01 -0.02 0 0.02 -0.02 0 0.03 -0.02 0 0.04 -0.02 0 0.05 -0.02 0 -0.05 -0.01 0 -0.04 -0.01 0 -0.03 -0.01 0 -0.02 -0.01 0 -0.01 -0.01 0 0 -0.01 0 0.01 -0.01 0 0.02 -0.01 0 0.03 -0.01 0 0.04 -0.01 0 0.05 -0.01 0 -0.05 0 0 -0.04 0 0 -0.03 0 0 -0.02 0 0 -0.01 0 0 0 0 0 0.01 0 0 0.02 0 0 0.03 0 0 0.04 0 0 0.05 0 0 -0.05 0.01 0 -0.04 0.01 0 -0.03 0.01 0 -0.02 0.01 0 -0.01 0.01 0 0 0.01 0 0.01 0.01 0 0.02 0.01 0 0.03 0.01 0 0.04 0.01 0 0.05 0.01 0 -0.05 0.02 0 -0.04 0.02 0 -0.03 0.02 0 -0.02 0.02 0 -0.01 0.02 0 0 0.02 0 0.01 0.02 0 0.02 0.02 0 0.03 0.02 0 0.04 0.02 0 0.05 0.02 0 -0.05 0.03 0 -0.04 0.03 0 -0.03 0.03 0 -0.02 0.03 0 -0.01 0.03 0 0 0.03 0 0.01 0.03 0 0.02 0.03 0 0.03 0.03 0 0.04 0.03 0 0.05 0.03 0 -0.05 0.04 0 -0.04 0.04 0 -0.03 0.04 0 -0.02 0.04 0 -0.01 0.04 0 0 0.04 0 0.01 0.04 0 0.02 0.04 0 0.03 0.04 0 0.04 0.04 0 0.05 0.04 0 -0.05 0.05 0 -0.04 0.05 0 -0.03 0.05 0 -0.02 0.05 0 -0.01 0.05 0 0 0.05 0 0.01 0.05 0 0.02 0.05 0 0.03 0.05 0 0.04 0.05 0 0.05 0.05 0 
</DataArray>
</Points>
<Cells>
<DataArray Name="connectivity" format="ascii" type="Int64">
0 1 12 11 1 2 13 12 2 3 14 13 3 4 15 14 4 5 16 15 5 6 17 16 6 7 18 17 7 8 19 18 8 9 20 19 9 10 21 20 11 12 23 22 12 13 24 23 13 14 25 24 14 15 26 25 15 16 27 26 16 17 28 27 17 18 29 28 18 19 30 29 19 20 31 30 20 21 32 31 22 23 34 33 23 24 35 34 24 25 36 35 25 26 37 36 26 27 38 37 27 28 39 38 28 29 40 39 29 30 41 40 30 31 42 41 31 32 43 42 33 34 45 44 34 35 46 45 35 36 47 46 36 37 48 47 37 38 49 48 38 39 50 49 39 40 51 50 40 41 52 51 41 42 53 52 42 43 54 53 44 45 56 55 45 46 57 56 46 47 58 57 47 48 59 58 48 49 60 59 49 50 61 60 50 51 62 61 51 52 63 62 52 53 64 63 53 54 65 64 55 56 67 66 56 57 68 67 57 58 69 68 58 59 70 69 59 60 71 70 60 61 72 71 61 62 73 72 62 63 74 73 63 64 75 74 64 65 76 75 66 67 78 77 67 68 79 78 68 69 80 79 69 70 81 80 70 71 82 81 71 72 83 82 72 73 84 83 73 74 85 84 74 75 86 85 75 76 87 86 77 78 89 88 78 79 90 89 79 80 91 90 80 81 92 91 81 82 93 92 82 83 94 93 83 84 95 94 84 85 96 95 85 86 97 96 86 87 98 97 88 89 100 99 89 90 101 100 90 91 102 101 91 92 103 102 92 93 104 103 93 94 105 104 94 95 106 105 95 96 107 106 96 97 108 107 97 98 109 108 99 100 111 110 100 101 112 111 101 102 113 112 102 103 114 113 103 104 115 114 104 105 116 115 105 106 117 116 106 107 118 117 107 108 119 118 108 109 120 119 
</DataArray>
<DataArray Name="offsets" format="ascii" type="Int64">
4 8 12 16 20 24 28 32 36 40 44 48 52 56 60 64 68 72 76 80 84 88 92 96 100 104 108 112 116 120 124 128 132 136 140 144 148 152 156 160 164 168 172 176 180 184 188 192 196 200 204 208 212 216 220 224 228 232 236 240 244 248 252 256 260 264 268 272 276 280 284 288 292 296 300 304 308 312 316 320 324 328 332 336 340 344 348 352 356 360 364 368 372 376 380 384 388 392 396 400 
</DataArray>
<DataArray Name="types" format="ascii" type="Int8">
9 9 9 9 9 9 9 9 9 9 9 9 9 9 9 9 9 9 9 9 9 9 9 9 9 9 9 9 9 9 9 9 9 9 9 9 9 9 9 9 9 9 9 9 9 9 9 9 9 9 9 9 9 9 9 9 9 9 9 9 9 9 9 9 9 9 9 9 9 9 9 9 9 9 9 9 9 9 9 9 9 9 9 9 9 9 9 9 9 9 9 9 9 9 9 9 9 9 9 9 
</DataArray>
</Cells>
</Piece>
</UnstructuredGrid>
</VTKFile>
