<?xml version="1.0"?>
<VTKFile byte_order="LittleEndian" type="UnstructuredGrid" version="0.1">
<UnstructuredGrid>
<Piece NumberOfCells="100" NumberOfPoints="121">
<PointData>
<DataArray Name="Warping_X" format="ascii" type="Float64">
-1.77704e-10 -1.52344e-10 -1.3658e-10 -1.29983e-10 -1.21509e-10 -1.10204e-10 -4.78541e-12 9.63193e-11 2.18232e-10 3.58468e-10 5.1475e-10 -8.03831e-11 -7.52466e-11 -7.96721e-11 -8.83169e-11 -8.79403e-11 -7.58864e-11 -7.3211e-12 4.95835e-11 1.19307e-10 1.98453e-10 2.82615e-10 2.27668e-11 1.27397e-11 -1.68399e-11 -5.41775e-11 -7.75665e-11 -7.87382e-11 -6.05506e-11 -2.88132e-11 3.48771e-12 3.1498e-11 5.89169e-11 1.04526e-10 8.53702e-11 3.41899e-11 -2.36385e-11 -6.7997e-11 -7.42503e-11 -1.0128e-10 -1.03731e-10 -1.20483e-10 -1.48318e-10 -1.80898e-10 9.74549e-11 7.48516e-11 4.36579e-11 2.64735e-11 5.4733e-12 -1.58218e-12 -6.74791e-11 -1.56232e-10 -2.54047e-10 -3.51951e-10 -4.47586e-10 -2.1719e-10 -1.4313e-10 -2.17256e-11 1.22379e-10 2.59053e-10 3.70218e-10 4.40929e-11 -2.07813e-10 -4.06576e-10 -5.83759e-10 -7.56443e-10 1.78348e-11 1.1575e-10 9.05711e-11 6.00932e-11 7.19294e-11 2.21524e-10 1.79681e-10 3.45013e-12 -1.78114e-10 -3.29423e-10 -3.57847e-10 2.37172e-10 2.05558e-10 1.60887e-10 8.54799e-11 5.38643e-11 3.0378e-11 7.72377e-11 6.45324e-11 -3.72834e-11 -1.38275e-10 -2.26515e-10 2.03801e-10 1.57647e-10 1.52382e-10 1.63501e-10 1.62528e-10 1.2844e-10 1.49985e-10 1.21855e-10 1.05847e-11 -1.13724e-10 -2.3522e-10 -1.56812e-10 -1.55182e-10 4.35079e-11 3.31746e-10 5.35685e-10 5.47634e-10 4.21725e-10 1.60584e-10 -5.16429e-11 -2.19542e-10 -3.69115e-10 -1.01927e-09 -7.95253e-10 -1.58413e-10 5.87708e-10 1.22959e-09 1.46426e-09 4.19318e-10 -4.39365e-11 -2.61377e-10 -4.11038e-10 -5.64643e-10 
</DataArray>
<DataArray Name="Warping_Y" format="ascii" type="Float64">
6.66485e-10 5.86074e-10 5.33118e-10 4.88462e-10 4.46961e-10 3.94336e-10 2.69788e-10 2.68508e-10 3.23657e-10 4.37882e-10 6.21833e-10 6.78843e-10 6.05793e-10 5.64644e-10 5.24026e-10 4.76518e-10 4.4431e-10 4.24051e-10 4.2557e-10 4.82192e-10 6.02419e-10 7.93517e-10 6.50228e-10 6.00563e-10 5.85143e-10 5.47271e-10 4.82856e-10 4.4439e-10 4.43232e-10 4.60263e-10 5.30209e-10 6.69856e-10 8.73868e-10 5.55468e-10 5.72288e-10 6.03834e-10 5.6996e-10 4.68282e-10 3.76792e-10 3.38279e-10 3.62494e-10 4.65791e-10 6.34173e-10 8.61434e-10 3.70167e-10 5.27309e-10 6.10692e-10 5.80766e-10 4.3724e-10 2.15934e-10 1.12006e-10 1.73467e-10 3.09827e-10 5.04314e-10 7.58783e-10 1.10164e-10 4.41942e-10 5.52219e-10 5.25463e-10 3.60723e-10 -2.60463e-11 -1.03084e-10 -5.50017e-11 8.63414e-11 2.93667e-10 5.69458e-10 -7.20143e-10 2.67527e-10 5.37782e-10 5.07279e-10 1.7858e-10 -9.13796e-10 -3.52603e-10 -2.17625e-10 -4.67726e-11 1.44641e-10 1.45206e-10 -1.12646e-09 1.71735e-11 4.89892e-10 4.56235e-10 -8.64355e-11 -1.29589e-09 -7.73535e-10 -4.67266e-10 -2.37553e-10 -7.10695e-11 -4.48218e-11 -1.45901e-09 -2.23444e-10 3.48926e-10 3.16548e-10 -3.18319e-10 -1.61481e-09 -1.19411e-09 -7.8269e-10 -4.6106e-10 -2.61261e-10 -1.55095e-10 -1.78387e-09 -5.30675e-10 4.14104e-11 1.26342e-11 -6.16497e-10 -1.92605e-09 -1.56497e-09 -1.02208e-09 -6.55601e-10 -4.26483e-10 -2.61716e-10 -2.15783e-09 -1.0199e-09 -5.74193e-10 -5.99973e-10 -1.0968e-09 -2.28556e-09 -1.63875e-09 -1.17796e-09 -8.20796e-10 -5.89935e-10 -4.02438e-10 
</DataArray>
<DataArray Name="Warping_Z" format="ascii" type="Float64">
0 0 0 0 0 0 0 0 0 0 0 0 0 0 0 0 0 0 0 0 0 0 0 0 0 0 0 0 0 0 0 0 0 0 0 0 0 0 0 0 0 0 0 0 0 0 0 0 0 0 0 0 0 0 0 0 0 0 0 0 0 0 0 0 0 0 0 0 0 0 0 0 0 0 0 0 0 0 0 0 0 0 0 0 0 0 0 0 0 0 0 0 0 0 0 0 0 0 0 0 0 0 0 0 0 0 0 0 0 0 0 0 0 0 0 0 0 0 0 0 0 
</DataArray>
</PointData>
<CellData>
<DataArray Name="MaterialId" format="ascii" type="Float64">
1 1 1 1 1 2 2 2 2 2 1 1 1 1 1 2 2 2 2 2 1 1 1 1 1 2 2 2 2 2 1 1 1 1 1 2 2 2 2 2 1 1 1 1 1 2 2 2 2 2 3 3 3 3 3 4 4 4 4 4 3 3 3 3 3 4 4 4 4 4 3 3 3 3 3 4 4 4 4 4 3 3 3 3 3 4 4 4 4 4 3 3 3 3 3 4 4 4 4 4 
</DataArray>
<DataArray Name="FiberAngle" format="ascii" type="Float64">
0 0 0 0 0 0 0 0 0 0 0 0 0 0 0 0 0 0 0 0 0 0 0 0 0 0 0 0 0 0 0 0 0 0 0 0 0 0 0 0 0 0 0 0 0 0 0 0 0 0 17 17 17 17 17 0 0 0 0 0 17 17 17 17 17 0 0 0 0 0 17 17 17 17 17 0 0 0 0 0 17 17 17 17 17 0 0 0 0 0 17 17 17 17 17 0 0 0 0 0 
</DataArray>
<DataArray Name="Strain_11" format="ascii" type="Float64">
1.52481e-09 5.66951e-10 -1.02392e-10 4.42491e-10 1.16798e-09 8.69918e-09 7.90047e-09 9.58184e-09 1.09691e-08 1.20222e-08 -2.44535e-10 -1.70025e-09 -2.29912e-09 -1.15062e-09 5.44114e-10 4.33764e-09 4.4321e-09 5.10124e-09 5.35779e-09 5.57902e-09 -1.45914e-09 -4.038e-09 -4.7583e-09 -3.38737e-09 -3.71248e-10 -4.42123e-10 1.46436e-09 7.77398e-10 8.79895e-12 -2.58044e-10 -2.08795e-09 -4.1187e-09 -3.75064e-09 -3.26793e-09 -6.65441e-10 -4.64634e-09 -4.56017e-09 -5.72838e-09 -6.28695e-09 -6.4107e-09 2.57285e-09 4.51053e-09 6.34603e-09 5.78369e-09 5.20548e-09 -1.96011e-08 -1.7033e-08 -1.48289e-08 -1.37544e-08 -1.34159e-08 8.59878e-09 4.81127e-09 5.68135e-09 7.42551e-09 1.3038e-08 -1.83984e-08 -2.14069e-08 -1.90164e-08 -1.64246e-08 -1.00554e-08 3.31506e-09 -3.49248e-09 -5.29427e-09 -9.88969e-10 6.30543e-09 2.50818e-10 -9.44681e-09 -1.4169e-08 -1.2615e-08 -5.83319e-09 -3.88837e-09 -2.49679e-09 -3.21444e-09 -1.62943e-09 -2.8787e-09 3.42022e-09 -2.04178e-09 -1.06543e-08 -1.1265e-08 -1.04868e-08 -2.22617e-09 9.67122e-09 1.49678e-08 1.01483e-08 -1.10692e-09 -5.2182e-09 -1.44636e-08 -1.61748e-08 -1.46104e-08 -1.35534e-08 1.12825e-08 4.17765e-08 5.17179e-08 4.22909e-08 1.2331e-08 -5.85424e-08 -3.62198e-08 -2.14833e-08 -1.5878e-08 -1.51589e-08 
</DataArray>
<DataArray Name="Strain_22" format="ascii" type="Float64">
1.60388e-09 2.56222e-09 3.35447e-09 3.25604e-09 3.97652e-09 1.02118e-08 1.55662e-08 1.57798e-08 1.61536e-08 1.68111e-08 -1.69223e-09 7.63518e-10 2.18724e-09 1.47915e-09 3.20884e-10 9.63056e-10 2.69374e-09 4.13552e-09 5.77267e-09 7.38934e-09 -6.15177e-09 -4.7925e-10 2.06895e-09 4.05771e-10 -4.10858e-09 -8.62757e-09 -1.01361e-08 -8.10933e-09 -5.00504e-09 -2.40587e-09 -1.1514e-08 -1.90604e-09 8.83195e-10 -1.0118e-09 -9.59497e-09 -1.93565e-08 -2.0765e-08 -1.72496e-08 -1.42911e-08 -1.16255e-08 -1.72685e-08 -7.19199e-09 -5.68877e-09 -6.59104e-09 -1.59249e-08 -2.28536e-08 -2.21779e-08 -2.25977e-08 -2.17066e-08 -1.99986e-08 -5.02361e-08 -9.44258e-09 -1.63105e-09 -1.00163e-08 -5.34946e-08 -5.68635e-08 -2.06071e-08 -1.47869e-08 -1.4107e-08 -2.86639e-08 -3.28337e-08 -1.49122e-08 -4.94669e-09 -1.5803e-08 -3.23556e-08 -4.01514e-08 -3.35286e-08 -2.20211e-08 -2.03246e-08 -2.02869e-08 -2.86582e-08 -1.90792e-08 -1.40327e-08 -1.85785e-08 -2.754e-08 -3.69744e-08 -3.67998e-08 -2.69465e-08 -2.06849e-08 -1.50232e-08 -3.16044e-08 -3.07373e-08 -3.05715e-08 -3.01046e-08 -3.04707e-08 -3.41051e-08 -3.0513e-08 -2.16968e-08 -1.79882e-08 -1.35921e-08 -4.31596e-08 -5.52416e-08 -6.14105e-08 -5.46454e-08 -4.19908e-08 -2.16645e-08 -1.14827e-08 -1.60536e-08 -1.64324e-08 -1.52087e-08 
</DataArray>
<DataArray Name="Strain_12" format="ascii" type="Float64">
1.04783e-09 1.99503e-09 6.6498e-10 -6.88758e-10 -8.47307e-10 -5.65129e-09 -2.45165e-09 -1.69446e-09 -1.22438e-09 -8.55105e-10 3.42107e-09 4.71248e-09 9.24099e-10 -3.37055e-09 -3.15758e-09 -3.87491e-09 -5.6538e-09 -3.38245e-09 -1.14503e-09 2.22871e-10 6.07727e-09 6.98931e-09 4.9116e-10 -6.29923e-09 -5.79497e-09 -3.79559e-09 -3.72002e-09 -1.28231e-09 2.12055e-10 5.82142e-10 7.81862e-09 5.69388e-09 -2.10962e-10 -6.08105e-09 -8.33295e-09 -1.79855e-09 3.34877e-09 2.67959e-09 1.28357e-09 5.70395e-10 -2.18538e-09 -4.48525e-09 -1.30798e-09 2.061e-09 8.65251e-10 1.51203e-08 8.47669e-09 3.67963e-09 8.73779e-10 -5.20304e-10 9.06676e-08 3.75855e-08 -3.62454e-10 -3.71425e-08 -9.07482e-08 2.35525e-08 2.64956e-08 3.75961e-08 4.40769e-08 4.64644e-08 1.22023e-07 4.51549e-08 1.57713e-09 -4.32024e-08 -1.25552e-07 3.94981e-08 1.99943e-08 3.01239e-08 3.44938e-08 1.74646e-08 1.14896e-07 4.94337e-08 1.74018e-10 -4.95427e-08 -1.14961e-07 5.56935e-08 4.23877e-08 3.28267e-08 2.19351e-08 7.41296e-09 9.07658e-08 3.61376e-08 -8.91732e-11 -3.61298e-08 -9.06844e-08 7.36355e-08 6.32386e-08 3.32308e-08 1.30436e-08 1.561e-09 4.44293e-08 8.79022e-09 -2.5768e-11 -8.80459e-09 -4.43891e-08 9.61051e-08 3.98372e-08 1.54698e-08 2.93751e-09 -1.73794e-09 
</DataArray>
<DataArray Name="Strain_13" format="ascii" type="Float64">
0.0449998 0.045 0.0450001 0.0450001 0.0449999 0.0450005 0.0450003 0.0450002 0.045 0.0449998 0.0349998 0.0349999 0.035 0.035 0.0349999 0.0350002 0.0350001 0.0350001 0.0349999 0.0349998 0.0249999 0.025 0.025 0.025 0.0249999 0.0249999 0.0249999 0.0249999 0.0249999 0.0249999 0.0150001 0.015 0.015 0.015 0.015 0.0149996 0.0149997 0.0149998 0.0149999 0.015 0.00500014 0.00500001 0.00499995 0.00499995 0.005 0.00499925 0.00499947 0.00499963 0.0049998 0.00500007 -0.0049997 -0.00499982 -0.00499986 -0.00499985 -0.00499977 -0.00500101 -0.00500066 -0.00500042 -0.00500016 -0.0049998 -0.0149995 -0.0149995 -0.0149995 -0.0149995 -0.0149995 -0.015001 -0.0150007 -0.0150004 -0.015 -0.0149996 -0.0249993 -0.0249993 -0.0249993 -0.0249993 -0.0249993 -0.025001 -0.0250007 -0.0250003 -0.0249999 -0.0249994 -0.0349992 -0.0349992 -0.0349992 -0.0349992 -0.0349992 -0.0350011 -0.0350008 -0.0350004 -0.0349999 -0.0349993 -0.0449991 -0.0449992 -0.0449992 -0.0449992 -0.0449991 -0.0450015 -0.045001 -0.0450005 -0.045 -0.0449993 
</DataArray>
<DataArray Name="Strain_23" format="ascii" type="Float64">
-0.0449998 -0.0349998 -0.025 -0.0150001 -0.00500017 0.00499967 0.0149994 0.0249993 0.0349991 0.0449991 -0.045 -0.035 -0.025 -0.015 -0.00500003 0.00499984 0.0149996 0.0249994 0.0349993 0.0449994 -0.0450001 -0.035 -0.025 -0.015 -0.00499997 0.00499991 0.0149997 0.0249995 0.0349994 0.0449994 -0.0450001 -0.035 -0.025 -0.015 -0.00499996 0.00499989 0.0149996 0.0249994 0.0349993 0.0449994 -0.045 -0.0349999 -0.025 -0.015 -0.005 0.00499978 0.0149995 0.0249993 0.0349991 0.0449991 -0.0450007 -0.0350004 -0.025 -0.0149996 -0.00499914 0.00500104 0.015001 0.025001 0.0350011 0.0450013 -0.0450004 -0.0350002 -0.0249999 -0.0149997 -0.0049995 0.00500063 0.0150007 0.0250007 0.0350008 0.0450009 -0.0450003 -0.0350001 -0.0249999 -0.0149998 -0.00499962 0.00500043 0.0150004 0.0250003 0.0350004 0.0450005 -0.0450002 -0.035 -0.0249999 -0.0149998 -0.00499972 0.00500022 0.015 0.0249999 0.0349999 0.0449999 -0.0449999 -0.0349999 -0.0249999 -0.015 -0.005 0.00499985 0.0149996 0.0249994 0.0349993 0.0449992 
</DataArray>
<DataArray Name="Strain_33" format="ascii" type="Float64">
0 0 0 0 0 0 0 0 0 0 0 0 0 0 0 0 0 0 0 0 0 0 0 0 0 0 0 0 0 0 0 0 0 0 0 0 0 0 0 0 0 0 0 0 0 0 0 0 0 0 0 0 0 0 0 0 0 0 0 0 0 0 0 0 0 0 0 0 0 0 0 0 0 0 0 0 0 0 0 0 0 0 0 0 0 0 0 0 0 0 0 0 0 0 0 0 0 0 0 0 
</DataArray>
<DataArray Name="Stress_11" format="ascii" type="Float64">
192.27 139.904 107.576 152.912 242.908 502.373 583.949 645.324 699.971 749.041 -80.7747 -125.582 -129.627 -51.4913 59.8591 166.699 205.029 256.992 298.922 339.239 -344.665 -378.033 -353.812 -289.01 -176.206 -190.101 -156.041 -138.211 -101.282 -57.5828 -587.546 -434.91 -304.903 -327.655 -393.465 -550.48 -576.143 -544.427 -503.332 -453.428 -370.724 153.352 369.922 288.199 -88.3741 -1128.79 -1027.96 -961.702 -907.165 -861.016 -1.9338e+07 -1.93382e+07 -1.93383e+07 -1.93383e+07 -1.93382e+07 -3.62536e-06 -2.63282e-06 -2.21635e-06 -1.96075e-06 -1.89738e-06 -5.8015e+07 -5.80152e+07 -5.80152e+07 -5.80151e+07 -5.80149e+07 -1.37487e-06 -2.01222e-06 -2.03432e-06 -1.83622e-06 -1.22801e-06 -9.66923e+07 -9.66923e+07 -9.66923e+07 -9.66923e+07 -9.66923e+07 -9.8068e-07 -1.46339e-06 -1.89121e-06 -1.72795e-06 -1.46127e-06 -1.3537e+08 -1.3537e+08 -1.3537e+08 -1.3537e+08 -1.3537e+08 -1.65386e-06 -2.35621e-06 -2.20254e-06 -1.93347e-06 -1.6859e-06 -1.74047e+08 -1.74047e+08 -1.74047e+08 -1.74047e+08 -1.74047e+08 -5.99283e-06 -3.64087e-06 -2.4812e-06 -1.99277e-06 -1.88583e-06 
</DataArray>
<DataArray Name="Stress_22" format="ascii" type="Float64">
196.594 249.02 296.623 306.777 396.501 365.282 448.028 486.1 521.163 554.687 -159.945 9.15547 115.721 92.3243 47.6512 105.834 139.736 179.963 215.426 249.794 -601.293 -183.414 19.5536 -81.5725 -380.591 -168.421 -157.607 -134.092 -92.3205 -49.7004 -1103.03 -313.905 -51.4905 -204.272 -881.798 -452.032 -476.314 -435.055 -391.715 -344.962 -1455.8 -486.63 -288.231 -388.544 -1243.94 -820.179 -755.571 -718.595 -680.319 -641.883 2.34556e+06 2.34615e+06 2.34629e+06 2.34618e+06 2.34557e+06 -5.72892e-06 -2.58909e-06 -1.98505e-06 -1.83401e-06 -2.91503e-06 7.03833e+06 7.03854e+06 7.03868e+06 7.03855e+06 7.03835e+06 -3.58436e-06 -3.32919e-06 -2.46373e-06 -2.25783e-06 -2.01845e-06 1.17309e+07 1.17311e+07 1.17311e+07 1.17311e+07 1.17309e+07 -3.18976e-06 -3.36422e-06 -2.78219e-06 -2.2431e-06 -1.70936e-06 1.64235e+07 1.64236e+07 1.64236e+07 1.64236e+07 1.64235e+07 -3.23362e-06 -3.23392e-06 -2.50452e-06 -2.1182e-06 -1.68802e-06 2.1116e+07 2.11161e+07 2.11161e+07 2.11162e+07 2.11161e+07 -3.97607e-06 -2.28806e-06 -2.18426e-06 -2.02309e-06 -1.88856e-06 
</DataArray>
<DataArray Name="Stress_12" format="ascii" type="Float64">
28.6516 54.5516 18.1831 -18.8333 -23.1686 -28.2565 -12.2582 -8.47232 -6.1219 -4.27553 93.545 128.857 25.2684 -92.1637 -86.3402 -19.3745 -28.269 -16.9122 -5.72514 1.11435 166.176 191.114 13.4302 -172.245 -158.456 -18.9779 -18.6001 -6.41155 1.06027 2.91071 213.791 155.692 -5.7685 -166.279 -227.854 -8.99275 16.7438 13.398 6.41787 2.85197 -59.7565 -122.644 -35.765 56.3555 23.6592 75.6017 42.3835 18.3981 4.36889 -2.60152 -2.51638e+07 -1.95718e+07 -1.39798e+07 -8.38777e+06 -2.79577e+06 6.44014e-07 7.24491e-07 1.02802e-06 1.20523e-06 1.27051e-06 -2.51635e+07 -1.95717e+07 -1.39798e+07 -8.38787e+06 -2.79609e+06 1.08003e-06 5.4672e-07 8.23702e-07 9.43191e-07 4.77548e-07 -2.51635e+07 -1.95717e+07 -1.39798e+07 -8.38793e+06 -2.79611e+06 1.52287e-06 1.15904e-06 8.97606e-07 5.9979e-07 2.02699e-07 -2.51635e+07 -1.95717e+07 -1.39798e+07 -8.38792e+06 -2.7961e+06 2.01348e-06 1.72918e-06 9.08656e-07 3.56661e-07 4.26838e-08 -2.51635e+07 -1.95717e+07 -1.39798e+07 -8.38792e+06 -2.79611e+06 2.62788e-06 1.0893e-06 4.23003e-07 8.03228e-08 -4.75218e-08 
</DataArray>
<DataArray Name="Stress_13" format="ascii" type="Float64">
1.23046e+09 1.23047e+09 1.23047e+09 1.23047e+09 1.23047e+09 2.70003e+08 2.70002e+08 2.70001e+08 2.7e+08 2.69999e+08 9.57028e+08 9.57031e+08 9.57033e+08 9.57032e+08 9.5703e+08 2.10001e+08 2.10001e+08 2.1e+08 2.1e+08 2.09999e+08 6.83593e+08 6.83594e+08 6.83594e+08 6.83594e+08 6.83593e+08 1.5e+08 1.5e+08 1.5e+08 1.49999e+08 1.49999e+08 4.10159e+08 4.10157e+08 4.10156e+08 4.10156e+08 4.10156e+08 8.99978e+07 8.99982e+07 8.99987e+07 8.99993e+07 9.00001e+07 1.36723e+08 1.36719e+08 1.36718e+08 1.36718e+08 1.36719e+08 2.99955e+07 2.99968e+07 2.99978e+07 2.99988e+07 3.00004e+07 -7.90966e+07 -7.90984e+07 -7.90991e+07 -7.90989e+07 -7.90976e+07 -0.136747 -0.136737 -0.13673 -0.136723 -0.136714 -2.37296e+08 -2.37296e+08 -2.37297e+08 -2.37296e+08 -2.37296e+08 -0.410184 -0.410176 -0.410167 -0.410157 -0.410146 -3.95496e+08 -3.95496e+08 -3.95496e+08 -3.95496e+08 -3.95496e+08 -0.683622 -0.683614 -0.683604 -0.683593 -0.68358 -5.53696e+08 -5.53696e+08 -5.53697e+08 -5.53696e+08 -5.53696e+08 -0.957064 -0.957055 -0.957044 -0.95703 -0.957014 -7.11897e+08 -7.11898e+08 -7.11899e+08 -7.11898e+08 -7.11897e+08 -1.23051 -1.2305 -1.23048 -1.23047 -1.23045 
</DataArray>
<DataArray Name="Stress_23" format="ascii" type="Float64">
-1.23047e+09 -9.57029e+08 -6.83594e+08 -4.10159e+08 -1.36724e+08 2.49983e+07 7.49972e+07 1.24996e+08 1.74996e+08 2.24995e+08 -1.23047e+09 -9.57032e+08 -6.83595e+08 -4.10158e+08 -1.3672e+08 2.49992e+07 7.49979e+07 1.24997e+08 1.74997e+08 2.24997e+08 -1.23047e+09 -9.57033e+08 -6.83595e+08 -4.10157e+08 -1.36718e+08 2.49995e+07 7.49983e+07 1.24997e+08 1.74997e+08 2.24997e+08 -1.23047e+09 -9.57033e+08 -6.83595e+08 -4.10157e+08 -1.36718e+08 2.49995e+07 7.49981e+07 1.24997e+08 1.74997e+08 2.24997e+08 -1.23047e+09 -9.57031e+08 -6.83594e+08 -4.10157e+08 -1.36719e+08 2.49989e+07 7.49973e+07 1.24996e+08 1.74996e+08 2.24995e+08 -2.1731e+08 -1.69018e+08 -1.20726e+08 -7.24335e+07 -2.41411e+07 0.136747 0.410184 0.683622 0.957064 1.23051 -2.17308e+08 -1.69017e+08 -1.20726e+08 -7.24342e+07 -2.41429e+07 0.136736 0.410176 0.683614 0.957054 1.2305 -2.17308e+08 -1.69017e+08 -1.20726e+08 -7.24345e+07 -2.41434e+07 0.136731 0.410167 0.683604 0.957043 1.23048 -2.17307e+08 -1.69016e+08 -1.20726e+08 -7.24348e+07 -2.41439e+07 0.136725 0.410157 0.683592 0.957029 1.23047 -2.17306e+08 -1.69016e+08 -1.20726e+08 -7.24356e+07 -2.41452e+07 0.136715 0.410146 0.683579 0.957014 1.23045 
</DataArray>
<DataArray Name="Stress_33" format="ascii" type="Float64">
108.882 108.899 113.176 128.713 179.035 851.647 1020.4 1115.92 1202.49 1282.87 -67.4016 -32.5994 -3.89363 11.4333 30.1029 262.608 335.429 426.695 504.245 579.161 -264.868 -157.205 -93.5923 -103.763 -155.903 -361.523 -321.92 -277.978 -195.978 -107.798 -473.362 -209.668 -99.7903 -148.939 -357.074 -1000.5 -1051.32 -973.891 -886.729 -788.522 -511.426 -93.318 22.8734 -28.0968 -373.049 -1912.83 -1753.21 -1655.45 -1564.79 -1480.21 -1.64921e+08 -1.64924e+08 -1.64926e+08 -1.64925e+08 -1.64923e+08 -2.6192e-06 -1.46213e-06 -1.17639e-06 -1.06253e-06 -1.34747e-06 -4.94774e+08 -4.94775e+08 -4.94776e+08 -4.94775e+08 -4.94774e+08 -1.38858e-06 -1.49559e-06 -1.25946e-06 -1.14634e-06 -9.09009e-07 -8.24629e+08 -8.2463e+08 -8.2463e+08 -8.24629e+08 -8.24629e+08 -1.16772e-06 -1.35173e-06 -1.30855e-06 -1.11189e-06 -8.87777e-07 -1.15448e+09 -1.15449e+09 -1.15449e+09 -1.15449e+09 -1.15448e+09 -1.36849e-06 -1.56524e-06 -1.31798e-06 -1.13447e-06 -9.44697e-07 -1.48434e+09 -1.48434e+09 -1.48435e+09 -1.48434e+09 -1.48434e+09 -2.79129e-06 -1.6601e-06 -1.30633e-06 -1.12444e-06 -1.05683e-06 
</DataArray>
</CellData>
<Points>
<DataArray NumberOfComponents="3" format="ascii" type="Float64">
-0.05 -0.05 0 -0.04 -0.05 0 -0.03 -0.05 0 -0.02 -0.05 0 -0.01 -0.05 0 0 -0.05 0 0.01 -0.05 0 0.02 -0.05 0 0.03 -0.05 0 0.04 -0.05 0 0.05 -0.05 0 -0.05 -0.04 0 -0.04 -0.04 0 -0.03 -0.04 0 -0.02 -0.04 0 -0.01 -0.04 0 0 -0.04 0 0.01 -0.04 0 0.02 -0.04 0 0.03 -0.04 0 0.04 -0.04 0 0.05 -0.04 0 -0.05 -0.03 0 -0.04 -0.03 0 -0.03 -0.03 0 -0.02 -0.03 0 -0.01 -0.03 0 0 -0.03 0 0.01 -0.03 0 0.02 -0.03 0 0.03 -0.03 0 0.04 -0.03 0 0.05 -0.03 0 -0.05 -0.02 0 -0.04 -0.02 0 -0.03 -0.02 0 -0.02 -0.02 0 -0.01 -0.02 0 0 -0.02 0 0.01 -0.02 0 0.02 -0.02 0 0.03 -0.02 0 0.04 -0.02 0 0.05 -0.02 0 -0.05 -0.01 0 -0.04 -0.01 0 -0.03 -0.01 0 -0.02 -0.01 0 -0.01 -0.01 0 0 -0.01 0 0.01 -0.01 0 0.02 -0.01 0 0.03 -0.01 0 0.04 -0.01 0 0.05 -0.01 0 -0.05 0 0 -0.04 0 0 -0.03 0 0 -0.02 0 0 -0.01 0 0 0 0 0 0.01 0 0 0.02 0 0 0.03 0 0 0.04 0 0 0.05 0 0 -0.05 0.01 0 -0.04 0.01 0 -0.03 0.01 0 -0.02 0.01 0 -0.01 0.01 0 0 0.01 0 0.01 0.01 0 0.02 0.01 0 0.03 0.01 0 0.04 0.01 0 0.05 0.01 0 -0.05 0.02 0 -0.04 0.02 0 -0.03 0.02 0 -0.02 0.02 0 -0.01 0.02 0 0 0.02 0 0.01 0.02 0 0.02 0.02 0 0.03 0.02 0 0.04 0.02 0 0.05 0.02 0 -0.05 0.03 0 -0.04 0.03 0 -0.03 0.03 0 -0.02 0.03 0 -0.01 0.03 0 0 0.03 0 0.01 0.03 0 0.02 0.03 0 0.03 0.03 0 0.04 0.03 0 0.05 0.03 0 -0.05 0.04 0 -0.04 0.04 0 -0.03 0.04 0 -0.02 0.04 0 -0.01 0.04 0 0 0.04 0 0.01 0.04 0 0.02 0.04 0 0.03 0.04 0 0.04 0.04 0 0.05 0.04 0 -0.05 0.05 0 -0.04 0.05 0 -0.03 0.05 0 -0.02 0.05 0 -0.01 0.05 0 0 0.05 0 0.01 0.05 0 0.02 0.05 0 0.03 0.05 0 0.04 0.05 0 0.05 0.05 0 
</DataArray>
</Points>
<Cells>
<DataArray Name="connectivity" format="ascii" type="Int64">
0 1 12 11 1 2 13 12 2 3 14 13 3 4 15 14 4 5 16 15 5 6 17 16 6 7 18 17 7 8 19 18 8 9 20 19 9 10 21 20 11 12 23 22 12 13 24 23 13 14 25 24 14 15 26 25 15 16 27 26 16 17 28 27 17 18 29 28 18 19 30 29 19 20 31 30 20 21 32 31 22 23 34 33 23 24 35 34 24 25 36 35 25 26 37 36 26 27 38 37 27 28 39 38 28 29 40 39 29 30 41 40 30 31 42 41 31 32 43 42 33 34 45 44 34 35 46 45 35 36 47 46 36 37 48 47 37 38 49 48 38 39 50 49 39 40 51 50 40 41 52 51 41 42 53 52 42 43 54 53 44 45 56 55 45 46 57 56 46 47 58 57 47 48 59 58 48 49 60 59 49 50 61 60 50 51 62 61 51 52 63 62 52 53 64 63 53 54 65 64 55 56 67 66 56 57 68 67 57 58 69 68 58 59 70 69 59 60 71 70 60 61 72 71 61 62 73 72 62 63 74 73 63 64 75 74 64 65 76 75 66 67 78 77 67 68 79 78 68 69 80 79 69 70 81 80 70 71 82 81 71 72 83 82 72 73 84 83 73 74 85 84 74 75 86 85 75 76 87 86 77 78 89 88 78 79 90 89 79 80 91 90 80 81 92 91 81 82 93 92 82 83 94 93 83 84 95 94 84 85 96 95 85 86 97 96 86 87 98 97 88 89 100 99 89 90 101 100 90 91 102 101 91 92 103 102 92 93 104 103 93 94 105 104 94 95 106 105 95 96 107 106 96 97 108 107 97 98 109 108 99 100 111 110 100 101 112 111 101 102 113 112 102 103 114 113 103 104 115 114 104 105 116 115 105 106 117 116 106 107 118 117 107 108 119 118 108 109 120 119 
</DataArray>
<DataArray Name="offsets" format="ascii" type="Int64">
4 8 12 16 20 24 28 32 36 40 44 48 52 56 60 64 68 72 76 80 84 88 92 96 100 104 108 112 116 120 124 128 132 136 140 144 148 152 156 160 164 168 172 176 180 184 188 192 196 200 204 208 212 216 220 224 228 232 236 240 244 248 252 256 260 264 268 272 276 280 284 288 292 296 300 304 308 312 316 320 324 328 332 336 340 344 348 352 356 360 364 368 372 376 380 384 388 392 396 400 
</DataArray>
<DataArray Name="types" format="ascii" type="Int8">
9 9 9 9 9 9 9 9 9 9 9 9 9 9 9 9 9 9 9 9 9 9 9 9 9 9 9 9 9 9 9 9 9 9 9 9 9 9 9 9 9 9 9 9 9 9 9 9 9 9 9 9 9 9 9 9 9 9 9 9 9 9 9 9 9 9 9 9 9 9 9 9 9 9 9 9 9 9 9 9 9 9 9 9 9 9 9 9 9 9 9 9 9 9 9 9 9 9 9 9 
</DataArray>
</Cells>
</Piece>
</UnstructuredGrid>
</VTKFile>
