<?xml version="1.0"?>
<VTKFile byte_order="LittleEndian" type="UnstructuredGrid" version="0.1">
<UnstructuredGrid>
<Piece NumberOfCells="100" NumberOfPoints="121">
<PointData>
<DataArray Name="Warping_X" format="ascii" type="Float64">
0.0795155 0.0201199 0.0581757 0.0415264 0.0296331 0.0224981 0.00013383 0.0256975 0.0264878 0.0224906 0.0137059 0.0595295 0.002512 0.00964707 0.0215403 0.0381897 0.0731281 0.0819369 0.0859341 0.0851197 0.0637462 0.0471018 0.0352102 0.0280756 0.0645219 0.0478859 0.0359993 0.0288658 0.0605247 0.0438887 0.0320021 0.0248686 0.0517546 0.0351102 0.0232186 0.016084 0.0795155 0.0224981 0.0296331 0.0415264 0.0581757 0.0595295 0.0851197 0.0859341 0.0819369 0.0731281 0.0381897 0.0215403 0.00964707 0.002512 0.0280756 0.0352102 0.0471018 0.0637462 0.0288658 0.0359993 0.0478859 0.0645219 0.0248686 0.0320021 0.0438887 0.0605247 0.016084 0.0232186 0.0351102 0.0517546 -0.139508 -0.01825 -0.0414038 -0.069329 -0.102029 -0.0799004 -0.137121 -0.12996 -0.11802 -0.101308 -0.0423934 -0.00966861 0.0182511 0.0413449 0.0198265 0.00316844 -0.0087314 -0.0158704 -0.00327258 -0.0199675 -0.0318771 -0.0390222 -0.0311649 -0.0478663 -0.059792 -0.066945 -0.0638382 -0.0805471 -0.0924839 -0.0996432 -0.0799004 0.0413449 0.0182511 -0.00966861 -0.0423934 -0.101308 -0.11802 -0.12996 -0.137121 -0.0158704 -0.0087314 0.00316844 0.0198265 -0.0390222 -0.0318771 -0.0199675 -0.00327258 -0.066945 -0.059792 -0.0478663 -0.0311649 -0.0996432 -0.0924839 -0.0805471 -0.0638382 
</DataArray>
<DataArray Name="Warping_Y" format="ascii" type="Float64">
-0.0393835 5.49027e-14 -0.0315527 -0.023677 -0.0157864 -0.00789326 -6.44958e-14 3.1023e-14 7.14056e-15 -1.67368e-14 -4.06164e-14 0.0793557 0.0158877 0.0317753 0.0476603 0.0635304 0.0557105 0.0318994 0.0080727 -0.0157384 -0.0125623 -0.00941273 -0.00627384 -0.00313685 0.00646266 0.00485433 0.00323808 0.00161922 0.025515 0.0191289 0.0127508 0.00637521 0.04454 0.033396 0.0222627 0.0111313 0.0393835 0.00789326 0.0157864 0.023677 0.0315527 -0.0793557 0.0157384 -0.0080727 -0.0318994 -0.0557105 -0.0635304 -0.0476603 -0.0317753 -0.0158877 0.00313685 0.00627384 0.00941273 0.0125623 -0.00161922 -0.00323808 -0.00485433 -0.00646266 -0.00637521 -0.0127508 -0.0191289 -0.025515 -0.0111313 -0.0222627 -0.033396 -0.04454 7.88057e-14 -8.30725e-14 -6.31008e-14 -1.81588e-14 3.54706e-14 0.198927 0.0398023 0.0796066 0.119409 0.159194 0.175216 0.151334 0.127404 0.103435 0.0826983 0.0620212 0.041347 0.0206731 0.101896 0.0763994 0.0509249 0.0254604 0.121046 0.0907614 0.0604965 0.0302455 0.14014 0.105091 0.0700552 0.0350261 -0.198927 -0.103435 -0.127404 -0.151334 -0.175216 -0.159194 -0.119409 -0.0796066 -0.0398023 -0.0206731 -0.041347 -0.0620212 -0.0826983 -0.0254604 -0.0509249 -0.0763994 -0.101896 -0.0302455 -0.0604965 -0.0907614 -0.121046 -0.0350261 -0.0700552 -0.105091 -0.14014 
</DataArray>
<DataArray Name="Warping_Z" format="ascii" type="Float64">
0 0 0 0 0 0 0 0 0 0 0 0 0 0 0 0 0 0 0 0 0 0 0 0 0 0 0 0 0 0 0 0 0 0 0 0 0 0 0 0 0 0 0 0 0 0 0 0 0 0 0 0 0 0 0 0 0 0 0 0 0 0 0 0 0 0 0 0 0 0 0 0 0 0 0 0 0 0 0 0 0 0 0 0 0 0 0 0 0 0 0 0 0 0 0 0 0 0 0 0 0 0 0 0 0 0 0 0 0 0 0 0 0 0 0 0 0 0 0 0 0 
</DataArray>
</PointData>
<CellData>
<DataArray Name="MaterialId" format="ascii" type="Float64">
1 1 1 1 1 1 1 1 1 1 1 1 1 1 1 1 1 1 1 1 1 1 1 1 1 1 1 1 1 1 1 1 1 1 1 1 1 1 1 1 1 1 1 1 1 1 1 1 1 1 2 2 2 2 2 2 2 2 2 2 2 2 2 2 2 2 2 2 2 2 2 2 2 2 2 2 2 2 2 2 2 2 2 2 2 2 2 2 2 2 2 2 2 2 2 2 2 2 2 2 
</DataArray>
<DataArray Name="FiberAngle" format="ascii" type="Float64">
0 0 0 0 0 0 0 0 0 0 0 0 0 0 0 0 0 0 0 0 0 0 0 0 0 0 0 0 0 0 0 0 0 0 0 0 0 0 0 0 0 0 0 0 0 0 0 0 0 0 0 0 0 0 0 0 0 0 0 0 0 0 0 0 0 0 0 0 0 0 0 0 0 0 0 0 0 0 0 0 0 0 0 0 0 0 0 0 0 0 0 0 0 0 0 0 0 0 0 0 
</DataArray>
<DataArray Name="Strain_11" format="ascii" type="Float64">
0.558733 0.0795038 -0.39972 -0.878944 -1.35817 0.557297 0.0779888 -0.399721 -0.877431 -1.35674 0.557628 0.0786592 -0.399721 -0.878102 -1.35707 0.557733 0.0789648 -0.399721 -0.878407 -1.35717 0.557759 0.0790211 -0.399721 -0.878463 -1.3572 0.557759 0.0790211 -0.399721 -0.878463 -1.3572 0.557733 0.0789648 -0.399721 -0.878407 -1.35717 0.557628 0.0786592 -0.399721 -0.878102 -1.35707 0.557297 0.0779888 -0.399721 -0.877431 -1.35674 0.558733 0.0795038 -0.39972 -0.878944 -1.35817 -1.82739 -2.30964 -2.7906 -3.26991 -3.74883 -1.83675 -2.31175 -2.78955 -3.26771 -3.74714 -1.83752 -2.31408 -2.79068 -3.26863 -3.74745 -1.83804 -2.31488 -2.79188 -3.26951 -3.7477 -1.83831 -2.31528 -2.7924 -3.26992 -3.74785 -1.83831 -2.31528 -2.7924 -3.26992 -3.74785 -1.83804 -2.31488 -2.79188 -3.26951 -3.7477 -1.83752 -2.31408 -2.79068 -3.26863 -3.74745 -1.83675 -2.31175 -2.78955 -3.26771 -3.74714 -1.82739 -2.30964 -2.7906 -3.26991 -3.74883 
</DataArray>
<DataArray Name="Strain_22" format="ascii" type="Float64">
0.550347 0.078304 -0.399721 -0.877746 -1.34979 0.55126 0.077061 -0.399721 -0.876503 -1.3507 0.551474 0.0761313 -0.399721 -0.875574 -1.35092 0.551507 0.0759066 -0.399721 -0.875349 -1.35095 0.551506 0.0758817 -0.399721 -0.875324 -1.35095 0.551506 0.0758817 -0.399721 -0.875324 -1.35095 0.551507 0.0759066 -0.399721 -0.875349 -1.35095 0.551474 0.0761313 -0.399721 -0.875574 -1.35092 0.55126 0.077061 -0.399721 -0.876503 -1.3507 0.550347 0.078304 -0.399721 -0.877746 -1.34979 -1.82811 -2.31224 -2.7898 -3.26819 -3.74047 -1.82736 -2.30866 -2.78902 -3.2667 -3.7417 -1.82796 -2.30743 -2.78697 -3.26502 -3.74192 -1.82808 -2.30692 -2.78578 -3.26401 -3.74167 -1.82804 -2.30667 -2.7853 -3.26358 -3.74142 -1.82804 -2.30667 -2.7853 -3.26358 -3.74142 -1.82808 -2.30692 -2.78578 -3.26401 -3.74167 -1.82796 -2.30743 -2.78697 -3.26502 -3.74192 -1.82736 -2.30866 -2.78902 -3.2667 -3.7417 -1.82811 -2.31224 -2.7898 -3.26819 -3.74047 
</DataArray>
<DataArray Name="Strain_12" format="ascii" type="Float64">
-0.00388988 0.00251857 0.00273968 0.00251807 -0.00388905 -0.00195327 0.000578956 0.00274345 0.000579724 -0.00195148 -0.000399555 4.13259e-05 0.000712136 4.23752e-05 -0.000398301 -3.28402e-05 -7.54835e-06 7.81923e-05 -6.92369e-06 -3.21615e-05 5.05704e-06 -4.0631e-06 -2.83069e-06 -3.86974e-06 5.2676e-06 -5.05704e-06 4.0631e-06 2.83069e-06 3.86974e-06 -5.2676e-06 3.28402e-05 7.54835e-06 -7.81923e-05 6.92369e-06 3.21615e-05 0.000399555 -4.13259e-05 -0.000712136 -4.23752e-05 0.000398301 0.00195327 -0.000578956 -0.00274345 -0.000579724 0.00195148 0.00388988 -0.00251857 -0.00273968 -0.00251807 0.00388905 0.019452 0.00618179 0.00301758 0.00181615 -0.00440542 0.0110619 0.011124 0.00579722 0.000686129 -0.00246221 0.00697487 0.00733472 0.00491638 0.00127868 -0.000321255 0.00415428 0.0040571 0.00292938 0.00134615 0.000327398 0.00137857 0.0013049 0.00097856 0.000537553 0.000189346 -0.00137857 -0.0013049 -0.00097856 -0.000537553 -0.000189346 -0.00415428 -0.0040571 -0.00292938 -0.00134615 -0.000327398 -0.00697487 -0.00733472 -0.00491638 -0.00127868 0.000321255 -0.0110619 -0.011124 -0.00579722 -0.000686129 0.00246221 -0.019452 -0.00618179 -0.00301758 -0.00181615 0.00440542 
</DataArray>
<DataArray Name="Strain_13" format="ascii" type="Float64">
0 0 0 0 0 0 0 0 0 0 0 0 0 0 0 0 0 0 0 0 0 0 0 0 0 0 0 0 0 0 0 0 0 0 0 0 0 0 0 0 0 0 0 0 0 0 0 0 0 0 0 0 0 0 0 0 0 0 0 0 0 0 0 0 0 0 0 0 0 0 0 0 0 0 0 0 0 0 0 0 0 0 0 0 0 0 0 0 0 0 0 0 0 0 0 0 0 0 0 0 
</DataArray>
<DataArray Name="Strain_23" format="ascii" type="Float64">
0 0 0 0 0 0 0 0 0 0 0 0 0 0 0 0 0 0 0 0 0 0 0 0 0 0 0 0 0 0 0 0 0 0 0 0 0 0 0 0 0 0 0 0 0 0 0 0 0 0 0 0 0 0 0 0 0 0 0 0 0 0 0 0 0 0 0 0 0 0 0 0 0 0 0 0 0 0 0 0 0 0 0 0 0 0 0 0 0 0 0 0 0 0 0 0 0 0 0 0 
</DataArray>
<DataArray Name="Strain_33" format="ascii" type="Float64">
1 1 1 1 1 1 1 1 1 1 1 1 1 1 1 1 1 1 1 1 1 1 1 1 1 1 1 1 1 1 1 1 1 1 1 1 1 1 1 1 1 1 1 1 1 1 1 1 1 1 1 1 1 1 1 1 1 1 1 1 1 1 1 1 1 1 1 1 1 1 1 1 1 1 1 1 1 1 1 1 1 1 1 1 1 1 1 1 1 1 1 1 1 1 1 1 1 1 1 1 
</DataArray>
<DataArray Name="Stress_11" format="ascii" type="Float64">
105.147 38.7866 -27.7389 -94.2645 -160.625 105.012 38.5838 -27.739 -94.0618 -160.491 105.055 38.6324 -27.7391 -94.1106 -160.533 105.068 38.6602 -27.7391 -94.1383 -160.546 105.071 38.6657 -27.7391 -94.1438 -160.549 105.071 38.6657 -27.7391 -94.1438 -160.549 105.068 38.6602 -27.7391 -94.1383 -160.546 105.055 38.6324 -27.7391 -94.1106 -160.533 105.012 38.5838 -27.739 -94.0618 -160.491 105.147 38.7866 -27.7389 -94.2645 -160.625 -0.0226047 -0.0293078 -0.0359783 -0.0426328 -0.0492661 -0.0227066 -0.0293213 -0.0359645 -0.0426042 -0.0492507 -0.0227167 -0.0293438 -0.0359714 -0.0426099 -0.0492547 -0.0227229 -0.0293512 -0.0359814 -0.0426168 -0.0492569 -0.0227258 -0.029355 -0.0359858 -0.0426201 -0.0492578 -0.0227258 -0.029355 -0.0359858 -0.0426201 -0.0492578 -0.0227229 -0.0293512 -0.0359814 -0.0426168 -0.0492569 -0.0227167 -0.0293438 -0.0359714 -0.0426099 -0.0492547 -0.0227066 -0.0293213 -0.0359645 -0.0426042 -0.0492507 -0.0226047 -0.0293078 -0.0359783 -0.0426328 -0.0492661 
</DataArray>
<DataArray Name="Stress_22" format="ascii" type="Float64">
104.448 38.6867 -27.739 -94.1647 -159.926 104.509 38.5065 -27.739 -93.9845 -159.988 104.542 38.4218 -27.739 -93.8999 -160.02 104.549 38.4053 -27.7391 -93.8834 -160.027 104.549 38.4041 -27.7391 -93.8822 -160.028 104.549 38.4041 -27.7391 -93.8822 -160.028 104.549 38.4053 -27.7391 -93.8834 -160.027 104.542 38.4218 -27.739 -93.8999 -160.02 104.509 38.5065 -27.739 -93.9845 -159.988 104.448 38.6867 -27.739 -94.1647 -159.926 -0.0226106 -0.0293295 -0.0359716 -0.0426185 -0.0491964 -0.0226283 -0.0292956 -0.0359601 -0.0425958 -0.0492054 -0.0226371 -0.0292883 -0.0359404 -0.0425798 -0.0492087 -0.0226398 -0.0292849 -0.0359305 -0.0425709 -0.0492066 -0.0226402 -0.0292833 -0.0359266 -0.0425673 -0.0492042 -0.0226402 -0.0292833 -0.0359266 -0.0425673 -0.0492042 -0.0226398 -0.0292849 -0.0359305 -0.0425709 -0.0492066 -0.0226371 -0.0292883 -0.0359404 -0.0425798 -0.0492087 -0.0226283 -0.0292956 -0.0359601 -0.0425958 -0.0492054 -0.0226106 -0.0293295 -0.0359716 -0.0426185 -0.0491964 
</DataArray>
<DataArray Name="Stress_12" format="ascii" type="Float64">
-0.162079 0.104941 0.114154 0.10492 -0.162045 -0.081387 0.0241234 0.114311 0.0241554 -0.0813122 -0.0166482 0.00172193 0.0296726 0.00176565 -0.016596 -0.00136835 -0.000314517 0.00325804 -0.000288489 -0.00134007 0.000210712 -0.000169297 -0.000117946 -0.00016124 0.000219485 -0.000210712 0.000169297 0.000117946 0.00016124 -0.000219485 0.00136835 0.000314517 -0.00325804 0.000288489 0.00134007 0.0166482 -0.00172193 -0.0296726 -0.00176565 0.016596 0.081387 -0.0241234 -0.114311 -0.0241554 0.0813122 0.162079 -0.104941 -0.114154 -0.10492 0.162045 8.10508e-05 2.57577e-05 1.25734e-05 7.56733e-06 -1.83561e-05 4.60914e-05 4.63505e-05 2.41553e-05 2.85889e-06 -1.02593e-05 2.90622e-05 3.05616e-05 2.04851e-05 5.32787e-06 -1.33857e-06 1.73096e-05 1.69047e-05 1.22058e-05 5.60902e-06 1.36417e-06 5.74407e-06 5.43713e-06 4.07737e-06 2.23982e-06 7.88946e-07 -5.74407e-06 -5.43713e-06 -4.07737e-06 -2.23982e-06 -7.88946e-07 -1.73096e-05 -1.69047e-05 -1.22058e-05 -5.60902e-06 -1.36417e-06 -2.90622e-05 -3.05616e-05 -2.04851e-05 -5.32787e-06 1.33857e-06 -4.60914e-05 -4.63505e-05 -2.41553e-05 -2.85889e-06 1.02593e-05 -8.10508e-05 -2.57577e-05 -1.25734e-05 -7.56733e-06 1.83561e-05 
</DataArray>
<DataArray Name="Stress_13" format="ascii" type="Float64">
0 0 0 0 0 0 0 0 0 0 0 0 0 0 0 0 0 0 0 0 0 0 0 0 0 0 0 0 0 0 0 0 0 0 0 0 0 0 0 0 0 0 0 0 0 0 0 0 0 0 0 0 0 0 0 0 0 0 0 0 0 0 0 0 0 0 0 0 0 0 0 0 0 0 0 0 0 0 0 0 0 0 0 0 0 0 0 0 0 0 0 0 0 0 0 0 0 0 0 0 
</DataArray>
<DataArray Name="Stress_23" format="ascii" type="Float64">
0 0 0 0 0 0 0 0 0 0 0 0 0 0 0 0 0 0 0 0 0 0 0 0 0 0 0 0 0 0 0 0 0 0 0 0 0 0 0 0 0 0 0 0 0 0 0 0 0 0 0 0 0 0 0 0 0 0 0 0 0 0 0 0 0 0 0 0 0 0 0 0 0 0 0 0 0 0 0 0 0 0 0 0 0 0 0 0 0 0 0 0 0 0 0 0 0 0 0 0 
</DataArray>
<DataArray Name="Stress_33" format="ascii" type="Float64">
141.919 115.495 88.9044 62.3142 35.8899 141.904 115.418 88.9044 62.3907 35.9044 141.919 115.411 88.9044 62.3979 35.8892 141.923 115.413 88.9044 62.3957 35.8854 141.924 115.414 88.9044 62.3948 35.8847 141.924 115.414 88.9044 62.3948 35.8847 141.923 115.413 88.9044 62.3957 35.8854 141.919 115.411 88.9044 62.3979 35.8892 141.904 115.418 88.9044 62.3907 35.9044 141.919 115.495 88.9044 62.3142 35.8899 0.000956947 -0.00172747 -0.00438999 -0.00705026 -0.0096925 0.000933018 -0.00172337 -0.00438493 -0.00704002 -0.00969121 0.000929236 -0.00172642 -0.00438237 -0.00703793 -0.00969268 0.000927449 -0.00172722 -0.00438238 -0.00703754 -0.0096927 0.000926805 -0.00172765 -0.00438248 -0.00703749 -0.00969241 0.000926805 -0.00172765 -0.00438248 -0.00703749 -0.00969241 0.000927449 -0.00172722 -0.00438238 -0.00703754 -0.0096927 0.000929236 -0.00172642 -0.00438237 -0.00703793 -0.00969268 0.000933018 -0.00172337 -0.00438493 -0.00704002 -0.00969121 0.000956947 -0.00172747 -0.00438999 -0.00705026 -0.0096925 
</DataArray>
</CellData>
<Points>
<DataArray NumberOfComponents="3" format="ascii" type="Float64">
-0.05 -0.05 0 -0.05 0 0 -0.05 -0.04 0 -0.05 -0.03 0 -0.05 -0.02 0 -0.05 -0.01 0 0 0 0 -0.04 0 0 -0.03 0 0 -0.02 0 0 -0.01 0 0 0 -0.05 0 0 -0.01 0 0 -0.02 0 0 -0.03 0 0 -0.04 0 -0.01 -0.05 0 -0.02 -0.05 0 -0.03 -0.05 0 -0.04 -0.05 0 -0.04 -0.04 0 -0.04 -0.03 0 -0.04 -0.02 0 -0.04 -0.01 0 -0.03 -0.04 0 -0.03 -0.03 0 -0.03 -0.02 0 -0.03 -0.01 0 -0.02 -0.04 0 -0.02 -0.03 0 -0.02 -0.02 0 -0.02 -0.01 0 -0.01 -0.04 0 -0.01 -0.03 0 -0.01 -0.02 0 -0.01 -0.01 0 -0.05 0.05 0 -0.05 0.01 0 -0.05 0.02 0 -0.05 0.03 0 -0.05 0.04 0 0 0.05 0 -0.04 0.05 0 -0.03 0.05 0 -0.02 0.05 0 -0.01 0.05 0 0 0.04 0 0 0.03 0 0 0.02 0 0 0.01 0 -0.04 0.01 0 -0.04 0.02 0 -0.04 0.03 0 -0.04 0.04 0 -0.03 0.01 0 -0.03 0.02 0 -0.03 0.03 0 -0.03 0.04 0 -0.02 0.01 0 -0.02 0.02 0 -0.02 0.03 0 -0.02 0.04 0 -0.01 0.01 0 -0.01 0.02 0 -0.01 0.03 0 -0.01 0.04 0 0.05 0 0 0.01 0 0 0.02 0 0 0.03 0 0 0.04 0 0 0.05 -0.05 0 0.05 -0.01 0 0.05 -0.02 0 0.05 -0.03 0 0.05 -0.04 0 0.04 -0.05 0 0.03 -0.05 0 0.02 -0.05 0 0.01 -0.05 0 0.01 -0.04 0 0.01 -0.03 0 0.01 -0.02 0 0.01 -0.01 0 0.02 -0.04 0 0.02 -0.03 0 0.02 -0.02 0 0.02 -0.01 0 0.03 -0.04 0 0.03 -0.03 0 0.03 -0.02 0 0.03 -0.01 0 0.04 -0.04 0 0.04 -0.03 0 0.04 -0.02 0 0.04 -0.01 0 0.05 0.05 0 0.01 0.05 0 0.02 0.05 0 0.03 0.05 0 0.04 0.05 0 0.05 0.04 0 0.05 0.03 0 0.05 0.02 0 0.05 0.01 0 0.01 0.01 0 0.01 0.02 0 0.01 0.03 0 0.01 0.04 0 0.02 0.01 0 0.02 0.02 0 0.02 0.03 0 0.02 0.04 0 0.03 0.01 0 0.03 0.02 0 0.03 0.03 0 0.03 0.04 0 0.04 0.01 0 0.04 0.02 0 0.04 0.03 0 0.04 0.04 0 
</DataArray>
</Points>
<Cells>
<DataArray Name="connectivity" format="ascii" type="Int64">
0 19 20 2 19 18 24 20 18 17 28 24 17 16 32 28 16 11 15 32 2 20 21 3 20 24 25 21 24 28 29 25 28 32 33 29 32 15 14 33 3 21 22 4 21 25 26 22 25 29 30 26 29 33 34 30 33 14 13 34 4 22 23 5 22 26 27 23 26 30 31 27 30 34 35 31 34 13 12 35 5 23 7 1 23 27 8 7 27 31 9 8 31 35 10 9 35 12 6 10 1 7 50 37 7 8 54 50 8 9 58 54 9 10 62 58 10 6 49 62 37 50 51 38 50 54 55 51 54 58 59 55 58 62 63 59 62 49 48 63 38 51 52 39 51 55 56 52 55 59 60 56 59 63 64 60 63 48 47 64 39 52 53 40 52 56 57 53 56 60 61 57 60 64 65 61 64 47 46 65 40 53 42 36 53 57 43 42 57 61 44 43 61 65 45 44 65 46 41 45 11 79 80 15 79 78 84 80 78 77 88 84 77 76 92 88 76 71 75 92 15 80 81 14 80 84 85 81 84 88 89 85 88 92 93 89 92 75 74 93 14 81 82 13 81 85 86 82 85 89 90 86 89 93 94 90 93 74 73 94 13 82 83 12 82 86 87 83 86 90 91 87 90 94 95 91 94 73 72 95 12 83 67 6 83 87 68 67 87 91 69 68 91 95 70 69 95 72 66 70 6 67 105 49 67 68 109 105 68 69 113 109 69 70 117 113 70 66 104 117 49 105 106 48 105 109 110 106 109 113 114 110 113 117 118 114 117 104 103 118 48 106 107 47 106 110 111 107 110 114 115 111 114 118 119 115 118 103 102 119 47 107 108 46 107 111 112 108 111 115 116 112 115 119 120 116 119 102 101 120 46 108 97 41 108 112 98 97 112 116 99 98 116 120 100 99 120 101 96 100 
</DataArray>
<DataArray Name="offsets" format="ascii" type="Int64">
4 8 12 16 20 24 28 32 36 40 44 48 52 56 60 64 68 72 76 80 84 88 92 96 100 104 108 112 116 120 124 128 132 136 140 144 148 152 156 160 164 168 172 176 180 184 188 192 196 200 204 208 212 216 220 224 228 232 236 240 244 248 252 256 260 264 268 272 276 280 284 288 292 296 300 304 308 312 316 320 324 328 332 336 340 344 348 352 356 360 364 368 372 376 380 384 388 392 396 400 
</DataArray>
<DataArray Name="types" format="ascii" type="Int8">
9 9 9 9 9 9 9 9 9 9 9 9 9 9 9 9 9 9 9 9 9 9 9 9 9 9 9 9 9 9 9 9 9 9 9 9 9 9 9 9 9 9 9 9 9 9 9 9 9 9 9 9 9 9 9 9 9 9 9 9 9 9 9 9 9 9 9 9 9 9 9 9 9 9 9 9 9 9 9 9 9 9 9 9 9 9 9 9 9 9 9 9 9 9 9 9 9 9 9 9 
</DataArray>
</Cells>
</Piece>
</UnstructuredGrid>
</VTKFile>
