<?xml version="1.0"?>
<VTKFile byte_order="LittleEndian" type="UnstructuredGrid" version="0.1">
<UnstructuredGrid>
<Piece NumberOfCells="100" NumberOfPoints="121">
<PointData>
<DataArray Name="Warping_X" format="ascii" type="Float64">
-2.38118 -0.00487638 -1.52741 -0.861306 -0.385482 -0.100022 -0.00535425 -0.388042 -0.579675 -0.57977 -0.388328 -2.38166 -0.1005 -0.38596 -0.861784 -1.52789 -2.76569 -2.9581 -2.958 -2.76541 -1.91029 -1.24439 -0.768626 -0.483186 -2.10135 -1.43577 -0.960214 -0.674814 -2.10144 -1.43587 -0.960309 -0.67491 -1.91058 -1.24467 -0.768913 -0.483472 -2.38118 -0.100022 -0.385482 -0.861306 -1.52741 -2.38166 -2.76541 -2.958 -2.9581 -2.76569 -1.52789 -0.861784 -0.38596 -0.1005 -0.483186 -0.768626 -1.24439 -1.91029 -0.674814 -0.960214 -1.43577 -2.10135 -0.67491 -0.960309 -1.43587 -2.10144 -0.483472 -0.768913 -1.24467 -1.91058 4.78135 0.570131 1.33645 2.29367 3.44191 2.39657 4.68587 4.39935 3.92167 3.25304 1.05601 -0.0932262 -1.05022 -1.81414 -0.953235 -0.286779 0.18931 0.474926 -0.189103 0.478828 0.955307 1.24117 0.766796 1.43499 1.91211 2.19829 1.91397 2.58246 3.06003 3.34646 2.39657 -1.81414 -1.05022 -0.0932262 1.05601 3.25304 3.92167 4.39935 4.68587 0.474926 0.18931 -0.286779 -0.953235 1.24117 0.955307 0.478828 -0.189103 2.19829 1.91211 1.43499 0.766796 3.34646 3.06003 2.58246 1.91397 
</DataArray>
<DataArray Name="Warping_Y" format="ascii" type="Float64">
2.37573 -1.5265e-12 1.90242 1.42732 0.951615 0.47581 4.48959e-12 -3.23094e-13 8.80223e-13 2.08339e-12 3.2865e-12 -2.37478 -0.475619 -0.951234 -1.42675 -1.90166 -1.42879 -0.476152 0.477107 1.42974 1.14266 0.856632 0.571036 0.285515 0.381506 0.285836 0.190483 0.0952343 -0.380741 -0.285262 -0.190101 -0.0950433 -1.14189 -0.85606 -0.570654 -0.285324 -2.37573 -0.47581 -0.951615 -1.42732 -1.90242 2.37478 -1.42974 -0.477107 0.476152 1.42879 1.90166 1.42675 0.951234 0.475619 -0.285515 -0.571036 -0.856632 -1.14266 -0.0952343 -0.190483 -0.285836 -0.381506 0.0950433 0.190101 0.285262 0.380741 0.285324 0.570654 0.85606 1.14189 -4.6657e-12 3.03258e-12 9.52187e-13 -1.38288e-12 -3.4672e-12 -7.1586 -1.43239 -2.86487 -4.29728 -5.72896 -6.20997 -5.25448 -4.29708 -3.33815 -2.66853 -2.00129 -1.33418 -0.667073 -3.43657 -2.57654 -1.71737 -0.858603 -4.20273 -3.15114 -2.10031 -1.05005 -4.96667 -3.72442 -2.48274 -1.24131 7.1586 3.33815 4.29708 5.25448 6.20997 5.72896 4.29728 2.86487 1.43239 0.667073 1.33418 2.00129 2.66853 0.858603 1.71737 2.57654 3.43657 1.05005 2.10031 3.15114 4.20273 1.24131 2.48274 3.72442 4.96667 
</DataArray>
<DataArray Name="Warping_Z" format="ascii" type="Float64">
0 0 0 0 0 0 0 0 0 0 0 0 0 0 0 0 0 0 0 0 0 0 0 0 0 0 0 0 0 0 0 0 0 0 0 0 0 0 0 0 0 0 0 0 0 0 0 0 0 0 0 0 0 0 0 0 0 0 0 0 0 0 0 0 0 0 0 0 0 0 0 0 0 0 0 0 0 0 0 0 0 0 0 0 0 0 0 0 0 0 0 0 0 0 0 0 0 0 0 0 0 0 0 0 0 0 0 0 0 0 0 0 0 0 0 0 0 0 0 0 0 
</DataArray>
</PointData>
<CellData>
<DataArray Name="MaterialId" format="ascii" type="Float64">
1 1 1 1 1 1 1 1 1 1 1 1 1 1 1 1 1 1 1 1 1 1 1 1 1 1 1 1 1 1 1 1 1 1 1 1 1 1 1 1 1 1 1 1 1 1 1 1 1 1 2 2 2 2 2 2 2 2 2 2 2 2 2 2 2 2 2 2 2 2 2 2 2 2 2 2 2 2 2 2 2 2 2 2 2 2 2 2 2 2 2 2 2 2 2 2 2 2 2 2 
</DataArray>
<DataArray Name="FiberAngle" format="ascii" type="Float64">
0 0 0 0 0 0 0 0 0 0 0 0 0 0 0 0 0 0 0 0 0 0 0 0 0 0 0 0 0 0 0 0 0 0 0 0 0 0 0 0 0 0 0 0 0 0 0 0 0 0 0 0 0 0 0 0 0 0 0 0 0 0 0 0 0 0 0 0 0 0 0 0 0 0 0 0 0 0 0 0 0 0 0 0 0 0 0 0 0 0 0 0 0 0 0 0 0 0 0 0 
</DataArray>
<DataArray Name="Strain_11" format="ascii" type="Float64">
-38.3554 -19.1824 -0.00959947 19.1632 38.3362 -38.2979 -19.1218 -0.0095662 19.1026 38.2788 -38.3112 -19.1486 -0.00955224 19.1295 38.2921 -38.3154 -19.1608 -0.00955183 19.1417 38.2963 -38.3164 -19.1631 -0.00955343 19.144 38.2973 -38.3164 -19.1631 -0.00955343 19.144 38.2973 -38.3154 -19.1608 -0.00955183 19.1417 38.2963 -38.3112 -19.1486 -0.00955224 19.1295 38.2921 -38.2979 -19.1218 -0.0095662 19.1026 38.2788 -38.3554 -19.1824 -0.00959947 19.1632 38.3362 57.1087 76.4026 95.6447 114.821 133.982 57.4832 76.4869 95.6028 114.733 133.914 57.5137 76.5802 95.648 114.77 133.926 57.5348 76.612 95.696 114.805 133.936 57.5456 76.6281 95.7167 114.821 133.942 57.5456 76.6281 95.7167 114.821 133.942 57.5348 76.612 95.696 114.805 133.936 57.5137 76.5802 95.648 114.77 133.926 57.4832 76.4869 95.6028 114.733 133.914 57.1087 76.4026 95.6447 114.821 133.982 
</DataArray>
<DataArray Name="Strain_22" format="ascii" type="Float64">
-38.0199 -19.1344 -0.00955552 19.1153 38.0008 -38.0564 -19.0847 -0.00956526 19.0655 38.0374 -38.065 -19.0475 -0.00956178 19.0284 38.0459 -38.0663 -19.0385 -0.00955483 19.0194 38.0472 -38.0662 -19.0375 -0.00955099 19.0184 38.0472 -38.0662 -19.0375 -0.00955099 19.0184 38.0472 -38.0663 -19.0385 -0.00955483 19.0194 38.0472 -38.065 -19.0475 -0.00956178 19.0284 38.0459 -38.0564 -19.0847 -0.00956526 19.0655 38.0374 -38.0199 -19.1344 -0.00955552 19.1153 38.0008 57.1373 76.5067 95.6126 114.752 133.647 57.1075 76.3634 95.5816 114.692 133.696 57.1314 76.314 95.4994 114.625 133.705 57.1361 76.2938 95.4517 114.585 133.695 57.1346 76.2838 95.4325 114.568 133.685 57.1346 76.2838 95.4325 114.568 133.685 57.1361 76.2938 95.4517 114.585 133.695 57.1314 76.314 95.4994 114.625 133.705 57.1075 76.3634 95.5816 114.692 133.696 57.1373 76.5067 95.6126 114.752 133.647 
</DataArray>
<DataArray Name="Strain_12" format="ascii" type="Float64">
0.155626 -0.100763 -0.109609 -0.100743 0.155593 0.0781466 -0.0231629 -0.10976 -0.0231936 0.0780747 0.0159854 -0.00165337 -0.0284911 -0.00169535 0.0159352 0.00131387 0.000301994 -0.00312832 0.000277003 0.00128672 -0.000202322 0.000162557 0.00011325 0.000154821 -0.000210746 0.000202322 -0.000162557 -0.00011325 -0.000154821 0.000210746 -0.00131387 -0.000301994 0.00312832 -0.000277003 -0.00128672 -0.0159854 0.00165337 0.0284911 0.00169535 -0.0159352 -0.0781466 0.0231629 0.10976 0.0231936 -0.0780747 -0.155626 0.100763 0.109609 0.100743 -0.155593 -0.778237 -0.247321 -0.120727 -0.0726604 0.176252 -0.442563 -0.44505 -0.231935 -0.0274507 0.0985082 -0.279051 -0.293447 -0.196694 -0.0511574 0.0128528 -0.166204 -0.162316 -0.117199 -0.0538569 -0.0130985 -0.0551536 -0.0522064 -0.0391502 -0.0215064 -0.00757534 0.0551536 0.0522064 0.0391502 0.0215064 0.00757534 0.166204 0.162316 0.117199 0.0538569 0.0130985 0.279051 0.293447 0.196694 0.0511574 -0.0128528 0.442563 0.44505 0.231935 0.0274507 -0.0985082 0.778237 0.247321 0.120727 0.0726604 -0.176252 
</DataArray>
<DataArray Name="Strain_13" format="ascii" type="Float64">
0 0 0 0 0 0 0 0 0 0 0 0 0 0 0 0 0 0 0 0 0 0 0 0 0 0 0 0 0 0 0 0 0 0 0 0 0 0 0 0 0 0 0 0 0 0 0 0 0 0 0 0 0 0 0 0 0 0 0 0 0 0 0 0 0 0 0 0 0 0 0 0 0 0 0 0 0 0 0 0 0 0 0 0 0 0 0 0 0 0 0 0 0 0 0 0 0 0 0 0 
</DataArray>
<DataArray Name="Strain_23" format="ascii" type="Float64">
0 0 0 0 0 0 0 0 0 0 0 0 0 0 0 0 0 0 0 0 0 0 0 0 0 0 0 0 0 0 0 0 0 0 0 0 0 0 0 0 0 0 0 0 0 0 0 0 0 0 0 0 0 0 0 0 0 0 0 0 0 0 0 0 0 0 0 0 0 0 0 0 0 0 0 0 0 0 0 0 0 0 0 0 0 0 0 0 0 0 0 0 0 0 0 0 0 0 0 0 
</DataArray>
<DataArray Name="Strain_33" format="ascii" type="Float64">
0.045 0.035 0.025 0.015 0.005 0.045 0.035 0.025 0.015 0.005 0.045 0.035 0.025 0.015 0.005 0.045 0.035 0.025 0.015 0.005 0.045 0.035 0.025 0.015 0.005 0.045 0.035 0.025 0.015 0.005 0.045 0.035 0.025 0.015 0.005 0.045 0.035 0.025 0.015 0.005 0.045 0.035 0.025 0.015 0.005 0.045 0.035 0.025 0.015 0.005 -0.005 -0.015 -0.025 -0.035 -0.045 -0.005 -0.015 -0.025 -0.035 -0.045 -0.005 -0.015 -0.025 -0.035 -0.045 -0.005 -0.015 -0.025 -0.035 -0.045 -0.005 -0.015 -0.025 -0.035 -0.045 -0.005 -0.015 -0.025 -0.035 -0.045 -0.005 -0.015 -0.025 -0.035 -0.045 -0.005 -0.015 -0.025 -0.035 -0.045 -0.005 -0.015 -0.025 -0.035 -0.045 -0.005 -0.015 -0.025 -0.035 -0.045 
</DataArray>
<DataArray Name="Stress_11" format="ascii" type="Float64">
-5316.57 -2661.92 -0.637595 2660.64 5315.29 -5311.2 -2653.8 -0.634168 2652.53 5309.93 -5312.91 -2655.75 -0.632521 2654.48 5311.64 -5313.41 -2656.85 -0.632282 2655.59 5312.15 -5313.53 -2657.08 -0.632353 2655.81 5312.26 -5313.53 -2657.08 -0.632353 2655.81 5312.26 -5313.41 -2656.85 -0.632282 2655.59 5312.15 -5312.91 -2655.75 -0.632521 2654.48 5311.64 -5311.2 -2653.8 -0.634168 2652.53 5309.93 -5316.57 -2661.92 -0.637595 2660.64 5315.29 0.793242 1.06139 1.32824 1.59445 1.8598 0.79732 1.06193 1.32769 1.5933 1.85918 0.797726 1.06283 1.32796 1.59353 1.85935 0.797973 1.06313 1.32836 1.5938 1.85943 0.798088 1.06328 1.32854 1.59394 1.85947 0.798088 1.06328 1.32854 1.59394 1.85947 0.797973 1.06313 1.32836 1.5938 1.85943 0.797726 1.06283 1.32796 1.59353 1.85935 0.79732 1.06193 1.32769 1.5933 1.85918 0.793242 1.06139 1.32824 1.59445 1.8598 
</DataArray>
<DataArray Name="Stress_22" format="ascii" type="Float64">
-5288.61 -2657.91 -0.633933 2656.65 5287.35 -5291.07 -2650.71 -0.63409 2649.44 5289.81 -5292.39 -2647.32 -0.633315 2646.05 5291.13 -5292.66 -2646.66 -0.632532 2645.39 5291.39 -5292.68 -2646.61 -0.632149 2645.35 5291.41 -5292.68 -2646.61 -0.632149 2645.35 5291.41 -5292.66 -2646.66 -0.632532 2645.39 5291.39 -5292.39 -2647.32 -0.633315 2646.05 5291.13 -5291.07 -2650.71 -0.63409 2649.44 5289.81 -5288.61 -2657.91 -0.633933 2656.65 5287.35 0.79348 1.06226 1.32797 1.59387 1.85701 0.794189 1.0609 1.32751 1.59297 1.85737 0.79454 1.06061 1.32672 1.59232 1.8575 0.79465 1.06048 1.32633 1.59197 1.85742 0.794664 1.06041 1.32617 1.59183 1.85733 0.794664 1.06041 1.32617 1.59183 1.85733 0.79465 1.06048 1.32633 1.59197 1.85742 0.79454 1.06061 1.32672 1.59232 1.8575 0.794189 1.0609 1.32751 1.59297 1.85737 0.79348 1.06226 1.32797 1.59387 1.85701 
</DataArray>
<DataArray Name="Stress_12" format="ascii" type="Float64">
6.48447 -4.1985 -4.56709 -4.19765 6.4831 3.25613 -0.965128 -4.57337 -0.966408 3.25314 0.666063 -0.0688908 -1.18714 -0.07064 0.663972 0.054745 0.0125832 -0.130348 0.0115419 0.0536136 -0.00843016 0.00677325 0.00471879 0.00645091 -0.00878115 0.00843016 -0.00677325 -0.00471879 -0.00645091 0.00878115 -0.054745 -0.0125832 0.130348 -0.0115419 -0.0536136 -0.666063 0.0688908 1.18714 0.07064 -0.663972 -3.25613 0.965128 4.57337 0.966408 -3.25314 -6.48447 4.1985 4.56709 4.19765 -6.4831 -0.00324268 -0.00103051 -0.000503035 -0.000302754 0.00073439 -0.00184403 -0.00185439 -0.000966404 -0.000114379 0.000410454 -0.00116272 -0.00122271 -0.000819567 -0.000213157 5.35536e-05 -0.000692524 -0.000676323 -0.000488332 -0.000224406 -5.45776e-05 -0.000229809 -0.000217529 -0.000163127 -8.96107e-05 -3.15642e-05 0.000229809 0.000217529 0.000163127 8.96107e-05 3.15642e-05 0.000692524 0.000676323 0.000488332 0.000224406 5.45776e-05 0.00116272 0.00122271 0.000819567 0.000213157 -5.35536e-05 0.00184403 0.00185439 0.000966404 0.000114379 -0.000410454 0.00324268 0.00103051 0.000503035 0.000302754 -0.00073439 
</DataArray>
<DataArray Name="Stress_13" format="ascii" type="Float64">
0 0 0 0 0 0 0 0 0 0 0 0 0 0 0 0 0 0 0 0 0 0 0 0 0 0 0 0 0 0 0 0 0 0 0 0 0 0 0 0 0 0 0 0 0 0 0 0 0 0 0 0 0 0 0 0 0 0 0 0 0 0 0 0 0 0 0 0 0 0 0 0 0 0 0 0 0 0 0 0 0 0 0 0 0 0 0 0 0 0 0 0 0 0 0 0 0 0 0 0 
</DataArray>
<DataArray Name="Stress_23" format="ascii" type="Float64">
0 0 0 0 0 0 0 0 0 0 0 0 0 0 0 0 0 0 0 0 0 0 0 0 0 0 0 0 0 0 0 0 0 0 0 0 0 0 0 0 0 0 0 0 0 0 0 0 0 0 0 0 0 0 0 0 0 0 0 0 0 0 0 0 0 0 0 0 0 0 0 0 0 0 0 0 0 0 0 0 0 0 0 0 0 0 0 0 0 0 0 0 0 0 0 0 0 0 0 0 
</DataArray>
<DataArray Name="Stress_33" format="ascii" type="Float64">
-2116.54 -1060.47 2.24569 1064.96 2121.03 -2115.95 -1057.4 2.24635 1061.89 2120.45 -2116.56 -1057.11 2.24683 1061.61 2121.05 -2116.71 -1057.2 2.24704 1061.7 2121.21 -2116.74 -1057.24 2.2471 1061.73 2121.24 -2116.74 -1057.24 2.2471 1061.73 2121.24 -2116.71 -1057.2 2.24704 1061.7 2121.21 -2116.56 -1057.11 2.24683 1061.61 2121.05 -2115.95 -1057.4 2.24635 1061.89 2120.45 -2116.54 -1060.47 2.24569 1064.96 2121.03 0.317294 0.424581 0.530992 0.637314 0.742913 0.318252 0.424418 0.53079 0.636904 0.742862 0.318403 0.42454 0.530687 0.63682 0.74292 0.318475 0.424572 0.530688 0.636805 0.742921 0.3185 0.424589 0.530692 0.636803 0.74291 0.3185 0.424589 0.530692 0.636803 0.74291 0.318475 0.424572 0.530688 0.636805 0.742921 0.318403 0.42454 0.530687 0.63682 0.74292 0.318252 0.424418 0.53079 0.636904 0.742862 0.317294 0.424581 0.530992 0.637314 0.742913 
</DataArray>
</CellData>
<Points>
<DataArray NumberOfComponents="3" format="ascii" type="Float64">
-0.05 -0.05 0 -0.05 0 0 -0.05 -0.04 0 -0.05 -0.03 0 -0.05 -0.02 0 -0.05 -0.01 0 0 0 0 -0.04 0 0 -0.03 0 0 -0.02 0 0 -0.01 0 0 0 -0.05 0 0 -0.01 0 0 -0.02 0 0 -0.03 0 0 -0.04 0 -0.01 -0.05 0 -0.02 -0.05 0 -0.03 -0.05 0 -0.04 -0.05 0 -0.04 -0.04 0 -0.04 -0.03 0 -0.04 -0.02 0 -0.04 -0.01 0 -0.03 -0.04 0 -0.03 -0.03 0 -0.03 -0.02 0 -0.03 -0.01 0 -0.02 -0.04 0 -0.02 -0.03 0 -0.02 -0.02 0 -0.02 -0.01 0 -0.01 -0.04 0 -0.01 -0.03 0 -0.01 -0.02 0 -0.01 -0.01 0 -0.05 0.05 0 -0.05 0.01 0 -0.05 0.02 0 -0.05 0.03 0 -0.05 0.04 0 0 0.05 0 -0.04 0.05 0 -0.03 0.05 0 -0.02 0.05 0 -0.01 0.05 0 0 0.04 0 0 0.03 0 0 0.02 0 0 0.01 0 -0.04 0.01 0 -0.04 0.02 0 -0.04 0.03 0 -0.04 0.04 0 -0.03 0.01 0 -0.03 0.02 0 -0.03 0.03 0 -0.03 0.04 0 -0.02 0.01 0 -0.02 0.02 0 -0.02 0.03 0 -0.02 0.04 0 -0.01 0.01 0 -0.01 0.02 0 -0.01 0.03 0 -0.01 0.04 0 0.05 0 0 0.01 0 0 0.02 0 0 0.03 0 0 0.04 0 0 0.05 -0.05 0 0.05 -0.01 0 0.05 -0.02 0 0.05 -0.03 0 0.05 -0.04 0 0.04 -0.05 0 0.03 -0.05 0 0.02 -0.05 0 0.01 -0.05 0 0.01 -0.04 0 0.01 -0.03 0 0.01 -0.02 0 0.01 -0.01 0 0.02 -0.04 0 0.02 -0.03 0 0.02 -0.02 0 0.02 -0.01 0 0.03 -0.04 0 0.03 -0.03 0 0.03 -0.02 0 0.03 -0.01 0 0.04 -0.04 0 0.04 -0.03 0 0.04 -0.02 0 0.04 -0.01 0 0.05 0.05 0 0.01 0.05 0 0.02 0.05 0 0.03 0.05 0 0.04 0.05 0 0.05 0.04 0 0.05 0.03 0 0.05 0.02 0 0.05 0.01 0 0.01 0.01 0 0.01 0.02 0 0.01 0.03 0 0.01 0.04 0 0.02 0.01 0 0.02 0.02 0 0.02 0.03 0 0.02 0.04 0 0.03 0.01 0 0.03 0.02 0 0.03 0.03 0 0.03 0.04 0 0.04 0.01 0 0.04 0.02 0 0.04 0.03 0 0.04 0.04 0 
</DataArray>
</Points>
<Cells>
<DataArray Name="connectivity" format="ascii" type="Int64">
0 19 20 2 19 18 24 20 18 17 28 24 17 16 32 28 16 11 15 32 2 20 21 3 20 24 25 21 24 28 29 25 28 32 33 29 32 15 14 33 3 21 22 4 21 25 26 22 25 29 30 26 29 33 34 30 33 14 13 34 4 22 23 5 22 26 27 23 26 30 31 27 30 34 35 31 34 13 12 35 5 23 7 1 23 27 8 7 27 31 9 8 31 35 10 9 35 12 6 10 1 7 50 37 7 8 54 50 8 9 58 54 9 10 62 58 10 6 49 62 37 50 51 38 50 54 55 51 54 58 59 55 58 62 63 59 62 49 48 63 38 51 52 39 51 55 56 52 55 59 60 56 59 63 64 60 63 48 47 64 39 52 53 40 52 56 57 53 56 60 61 57 60 64 65 61 64 47 46 65 40 53 42 36 53 57 43 42 57 61 44 43 61 65 45 44 65 46 41 45 11 79 80 15 79 78 84 80 78 77 88 84 77 76 92 88 76 71 75 92 15 80 81 14 80 84 85 81 84 88 89 85 88 92 93 89 92 75 74 93 14 81 82 13 81 85 86 82 85 89 90 86 89 93 94 90 93 74 73 94 13 82 83 12 82 86 87 83 86 90 91 87 90 94 95 91 94 73 72 95 12 83 67 6 83 87 68 67 87 91 69 68 91 95 70 69 95 72 66 70 6 67 105 49 67 68 109 105 68 69 113 109 69 70 117 113 70 66 104 117 49 105 106 48 105 109 110 106 109 113 114 110 113 117 118 114 117 104 103 118 48 106 107 47 106 110 111 107 110 114 115 111 114 118 119 115 118 103 102 119 47 107 108 46 107 111 112 108 111 115 116 112 115 119 120 116 119 102 101 120 46 108 97 41 108 112 98 97 112 116 99 98 116 120 100 99 120 101 96 100 
</DataArray>
<DataArray Name="offsets" format="ascii" type="Int64">
4 8 12 16 20 24 28 32 36 40 44 48 52 56 60 64 68 72 76 80 84 88 92 96 100 104 108 112 116 120 124 128 132 136 140 144 148 152 156 160 164 168 172 176 180 184 188 192 196 200 204 208 212 216 220 224 228 232 236 240 244 248 252 256 260 264 268 272 276 280 284 288 292 296 300 304 308 312 316 320 324 328 332 336 340 344 348 352 356 360 364 368 372 376 380 384 388 392 396 400 
</DataArray>
<DataArray Name="types" format="ascii" type="Int8">
9 9 9 9 9 9 9 9 9 9 9 9 9 9 9 9 9 9 9 9 9 9 9 9 9 9 9 9 9 9 9 9 9 9 9 9 9 9 9 9 9 9 9 9 9 9 9 9 9 9 9 9 9 9 9 9 9 9 9 9 9 9 9 9 9 9 9 9 9 9 9 9 9 9 9 9 9 9 9 9 9 9 9 9 9 9 9 9 9 9 9 9 9 9 9 9 9 9 9 9 
</DataArray>
</Cells>
</Piece>
</UnstructuredGrid>
</VTKFile>
