<?xml version="1.0"?>
<VTKFile byte_order="LittleEndian" type="UnstructuredGrid" version="0.1">
<UnstructuredGrid>
<Piece NumberOfCells="100" NumberOfPoints="121">
<PointData>
<DataArray Name="Warping_X" format="ascii" type="Float64">
-1.19576 8.02211e-14 -0.958119 -0.718829 -0.479293 -0.239656 8.02815e-14 8.01947e-14 8.01852e-14 8.02083e-14 8.0248e-14 -0.00122475 0.000258663 0.00049916 0.000638537 0.000531826 -0.239813 -0.478883 -0.7181 -0.957171 -0.766233 -0.574968 -0.383365 -0.19169 -0.574582 -0.431044 -0.287395 -0.1437 -0.383005 -0.287147 -0.191399 -0.0956973 -0.191354 -0.143222 -0.0954283 -0.0477066 1.19576 0.239656 0.479293 0.718829 0.958119 0.00122475 0.957171 0.7181 0.478883 0.239813 -0.000531826 -0.000638537 -0.00049916 -0.000258663 0.19169 0.383365 0.574968 0.766233 0.1437 0.287395 0.431044 0.574582 0.0956973 0.191399 0.287147 0.383005 0.0477066 0.0954283 0.143222 0.191354 -1.33063e-13 1.20663e-14 -4.31968e-14 -8.57033e-14 -1.15628e-13 1.19612 0.239795 0.479527 0.719104 0.958424 0.957531 0.718415 0.479007 0.239298 0.19167 0.144082 0.0961664 0.0481145 0.383244 0.287643 0.191904 0.0959931 0.574858 0.431388 0.287735 0.143909 0.766534 0.575262 0.383629 0.191851 -1.19612 -0.239298 -0.479007 -0.718415 -0.957531 -0.958424 -0.719104 -0.479527 -0.239795 -0.0481145 -0.0961664 -0.144082 -0.19167 -0.0959931 -0.191904 -0.287643 -0.383244 -0.143909 -0.287735 -0.431388 -0.574858 -0.191851 -0.383629 -0.575262 -0.766534 
</DataArray>
<DataArray Name="Warping_Y" format="ascii" type="Float64">
-0.00139959 0.599264 0.214852 0.38311 0.503225 0.575259 0.000771749 0.383626 0.215984 0.0962858 0.0245304 -0.599891 -0.0232335 -0.095267 -0.215382 -0.383639 -0.575026 -0.503108 -0.383409 -0.215931 -3.19727e-05 0.167771 0.287686 0.359641 -0.167488 0.000324962 0.120133 0.19202 -0.287186 -0.119373 0.000434355 0.0723214 -0.359127 -0.191324 -0.0714093 0.000545332 -0.00139959 0.575259 0.503225 0.38311 0.214852 -0.599891 -0.215931 -0.383409 -0.503108 -0.575026 -0.383639 -0.215382 -0.095267 -0.0232335 0.359641 0.287686 0.167771 -3.19727e-05 0.19202 0.120133 0.000324962 -0.167488 0.0723214 0.000434355 -0.119373 -0.287186 0.000545332 -0.0714093 -0.191324 -0.359127 0.599233 0.0245393 0.096229 0.21587 0.38351 -0.00163363 0.575197 0.503092 0.38291 0.214622 -0.216243 -0.383849 -0.50373 -0.575792 -0.359829 -0.191615 -0.0715069 0.000531774 -0.287791 -0.1198 0.00022172 0.0722277 -0.167923 -3.40714e-05 0.119892 0.191873 -0.000336587 0.167507 0.287488 0.359502 -0.00163363 -0.575792 -0.50373 -0.383849 -0.216243 0.214622 0.38291 0.503092 0.575197 0.000531774 -0.0715069 -0.191615 -0.359829 0.0722277 0.00022172 -0.1198 -0.287791 0.191873 0.119892 -3.40714e-05 -0.167923 0.359502 0.287488 0.167507 -0.000336587 
</DataArray>
<DataArray Name="Warping_Z" format="ascii" type="Float64">
0 0 0 0 0 0 0 0 0 0 0 0 0 0 0 0 0 0 0 0 0 0 0 0 0 0 0 0 0 0 0 0 0 0 0 0 0 0 0 0 0 0 0 0 0 0 0 0 0 0 0 0 0 0 0 0 0 0 0 0 0 0 0 0 0 0 0 0 0 0 0 0 0 0 0 0 0 0 0 0 0 0 0 0 0 0 0 0 0 0 0 0 0 0 0 0 0 0 0 0 0 0 0 0 0 0 0 0 0 0 0 0 0 0 0 0 0 0 0 0 0 
</DataArray>
</PointData>
<CellData>
<DataArray Name="MaterialId" format="ascii" type="Float64">
1 1 1 1 1 1 1 1 1 1 1 1 1 1 1 1 1 1 1 1 1 1 1 1 1 1 1 1 1 1 1 1 1 1 1 1 1 1 1 1 1 1 1 1 1 1 1 1 1 1 2 2 2 2 2 2 2 2 2 2 2 2 2 2 2 2 2 2 2 2 2 2 2 2 2 2 2 2 2 2 2 2 2 2 2 2 2 2 2 2 2 2 2 2 2 2 2 2 2 2 
</DataArray>
<DataArray Name="FiberAngle" format="ascii" type="Float64">
0 0 0 0 0 0 0 0 0 0 0 0 0 0 0 0 0 0 0 0 0 0 0 0 0 0 0 0 0 0 0 0 0 0 0 0 0 0 0 0 0 0 0 0 0 0 0 0 0 0 0 0 0 0 0 0 0 0 0 0 0 0 0 0 0 0 0 0 0 0 0 0 0 0 0 0 0 0 0 0 0 0 0 0 0 0 0 0 0 0 0 0 0 0 0 0 0 0 0 0 
</DataArray>
<DataArray Name="Strain_11" format="ascii" type="Float64">
21.5237 21.5361 21.5397 21.5361 21.5237 16.7873 16.7788 16.7737 16.7788 16.7873 11.9894 11.9948 11.9946 11.9948 11.9894 7.19464 7.19806 7.19991 7.19806 7.19464 2.39826 2.39953 2.40012 2.39953 2.39826 -2.39826 -2.39953 -2.40012 -2.39953 -2.39826 -7.19464 -7.19806 -7.19991 -7.19806 -7.19464 -11.9894 -11.9948 -11.9946 -11.9948 -11.9894 -16.7873 -16.7788 -16.7737 -16.7788 -16.7873 -21.5237 -21.5361 -21.5397 -21.5361 -21.5237 21.5831 21.5641 21.5511 21.5396 21.5241 16.7291 16.7567 16.768 16.7775 16.7866 11.9555 11.9649 11.9788 11.9884 11.987 7.17616 7.18079 7.18734 7.19182 7.1921 2.39279 2.39393 2.39579 2.39711 2.39721 -2.39279 -2.39393 -2.39579 -2.39711 -2.39721 -7.17616 -7.18079 -7.18734 -7.19182 -7.1921 -11.9555 -11.9649 -11.9788 -11.9884 -11.987 -16.7291 -16.7567 -16.768 -16.7775 -16.7866 -21.5831 -21.5641 -21.5511 -21.5396 -21.5241 
</DataArray>
<DataArray Name="Strain_22" format="ascii" type="Float64">
21.6075 21.591 21.5922 21.591 21.6075 16.8031 16.7808 16.7812 16.7808 16.803 12.0015 11.9861 11.9808 11.9861 12.0015 7.19941 7.19209 7.18871 7.19209 7.1994 2.39952 2.39747 2.39643 2.39747 2.39952 -2.39952 -2.39747 -2.39643 -2.39747 -2.39952 -7.19941 -7.19209 -7.18871 -7.19209 -7.1994 -12.0015 -11.9861 -11.9808 -11.9861 -12.0015 -16.8031 -16.7808 -16.7812 -16.7808 -16.803 -21.6075 -21.591 -21.5922 -21.591 -21.6075 21.6107 21.5951 21.5932 21.5916 21.6081 16.8236 16.8102 16.794 16.7866 16.8066 12.0111 12.0065 11.9974 11.9954 12.0082 7.20361 7.20223 7.19935 7.19975 7.20595 2.40064 2.40044 2.39991 2.40027 2.40221 -2.40064 -2.40044 -2.39991 -2.40027 -2.40221 -7.20361 -7.20223 -7.19935 -7.19975 -7.20595 -12.0111 -12.0065 -11.9974 -11.9954 -12.0082 -16.8236 -16.8102 -16.794 -16.7866 -16.8066 -21.6107 -21.5951 -21.5932 -21.5916 -21.6081 
</DataArray>
<DataArray Name="Strain_12" format="ascii" type="Float64">
-0.0419244 -0.0239295 -4.50295e-06 0.0239184 0.0419166 0.0166105 -0.00491156 -4.75795e-06 0.00490523 -0.0166068 0.0130688 0.0126293 2.96263e-07 -0.0126266 -0.013067 0.00776648 0.00982367 3.83526e-06 -0.00981708 -0.00776533 0.0044786 0.0063881 5.12938e-06 -0.00637992 -0.00447742 0.0044786 0.0063881 5.12938e-06 -0.00637992 -0.00447742 0.00776648 0.00982367 3.83526e-06 -0.00981708 -0.00776533 0.0130688 0.0126293 2.96263e-07 -0.0126266 -0.013067 0.0166105 -0.00491156 -4.75795e-06 0.00490523 -0.0166068 -0.0419244 -0.0239295 -4.50295e-06 0.0239184 0.0419166 0.101927 0.0354329 0.0214088 0.0318719 0.0435214 0.00482562 0.0331576 0.0281293 0.0192407 -0.0115243 -0.0263823 -0.00559339 0.00221111 -0.00749787 -0.0101477 -0.0383548 -0.0268986 -0.0210025 -0.0190142 -0.0104727 -0.0420159 -0.0360985 -0.0307466 -0.0246005 -0.0113767 -0.0420159 -0.0360985 -0.0307466 -0.0246005 -0.0113767 -0.0383548 -0.0268986 -0.0210025 -0.0190142 -0.0104727 -0.0263823 -0.00559339 0.00221111 -0.00749787 -0.0101477 0.00482562 0.0331576 0.0281293 0.0192407 -0.0115243 0.101927 0.0354329 0.0214088 0.0318719 0.0435214 
</DataArray>
<DataArray Name="Strain_13" format="ascii" type="Float64">
0 0 0 0 0 0 0 0 0 0 0 0 0 0 0 0 0 0 0 0 0 0 0 0 0 0 0 0 0 0 0 0 0 0 0 0 0 0 0 0 0 0 0 0 0 0 0 0 0 0 0 0 0 0 0 0 0 0 0 0 0 0 0 0 0 0 0 0 0 0 0 0 0 0 0 0 0 0 0 0 0 0 0 0 0 0 0 0 0 0 0 0 0 0 0 0 0 0 0 0 
</DataArray>
<DataArray Name="Strain_23" format="ascii" type="Float64">
0 0 0 0 0 0 0 0 0 0 0 0 0 0 0 0 0 0 0 0 0 0 0 0 0 0 0 0 0 0 0 0 0 0 0 0 0 0 0 0 0 0 0 0 0 0 0 0 0 0 0 0 0 0 0 0 0 0 0 0 0 0 0 0 0 0 0 0 0 0 0 0 0 0 0 0 0 0 0 0 0 0 0 0 0 0 0 0 0 0 0 0 0 0 0 0 0 0 0 0 
</DataArray>
<DataArray Name="Strain_33" format="ascii" type="Float64">
-0.045 -0.045 -0.045 -0.045 -0.045 -0.035 -0.035 -0.035 -0.035 -0.035 -0.025 -0.025 -0.025 -0.025 -0.025 -0.015 -0.015 -0.015 -0.015 -0.015 -0.005 -0.005 -0.005 -0.005 -0.005 0.005 0.005 0.005 0.005 0.005 0.015 0.015 0.015 0.015 0.015 0.025 0.025 0.025 0.025 0.025 0.035 0.035 0.035 0.035 0.035 0.045 0.045 0.045 0.045 0.045 -0.045 -0.045 -0.045 -0.045 -0.045 -0.035 -0.035 -0.035 -0.035 -0.035 -0.025 -0.025 -0.025 -0.025 -0.025 -0.015 -0.015 -0.015 -0.015 -0.015 -0.005 -0.005 -0.005 -0.005 -0.005 0.005 0.005 0.005 0.005 0.005 0.015 0.015 0.015 0.015 0.015 0.025 0.025 0.025 0.025 0.025 0.035 0.035 0.035 0.035 0.035 0.045 0.045 0.045 0.045 0.045 
</DataArray>
<DataArray Name="Stress_11" format="ascii" type="Float64">
2990.48 2991.4 2991.83 2991.4 2990.48 2331.04 2329.47 2328.92 2329.47 2331.04 1664.84 1665.01 1664.84 1665 1664.84 998.971 999.148 999.259 999.148 998.971 332.988 333.072 333.109 333.072 332.988 -332.988 -333.072 -333.109 -333.072 -332.988 -998.971 -999.148 -999.259 -999.148 -998.971 -1664.84 -1665.01 -1664.84 -1665 -1664.84 -2331.04 -2329.47 -2328.92 -2329.47 -2331.04 -2990.48 -2991.4 -2991.83 -2991.4 -2990.48 0.299717 0.299463 0.299313 0.299181 0.299055 0.232514 0.232783 0.232864 0.232948 0.233106 0.166134 0.166225 0.166355 0.166456 0.166475 0.0997034 0.0997511 0.0998158 0.0998668 0.099887 0.0332411 0.0332532 0.0332724 0.033288 0.0332946 -0.0332411 -0.0332532 -0.0332724 -0.033288 -0.0332946 -0.0997034 -0.0997511 -0.0998158 -0.0998668 -0.099887 -0.166134 -0.166225 -0.166355 -0.166456 -0.166475 -0.232514 -0.232783 -0.232864 -0.232948 -0.233106 -0.299717 -0.299463 -0.299313 -0.299181 -0.299055 
</DataArray>
<DataArray Name="Stress_22" format="ascii" type="Float64">
2997.47 2995.98 2996.21 2995.98 2997.47 2332.35 2329.64 2329.55 2329.64 2332.35 1665.84 1664.28 1663.69 1664.28 1665.84 999.369 998.65 998.326 998.65 999.368 333.093 332.901 332.802 332.9 333.093 -333.093 -332.901 -332.802 -332.9 -333.093 -999.369 -998.65 -998.326 -998.65 -999.368 -1665.84 -1664.28 -1663.69 -1664.28 -1665.84 -2332.35 -2329.64 -2329.55 -2329.64 -2332.35 -2997.47 -2995.98 -2996.21 -2995.98 -2997.47 0.299947 0.299721 0.299664 0.299614 0.299754 0.233301 0.23323 0.23308 0.233025 0.233272 0.166597 0.166572 0.16651 0.166514 0.166652 0.0999322 0.0999298 0.099916 0.0999328 0.100002 0.0333065 0.0333075 0.0333068 0.0333144 0.0333362 -0.0333065 -0.0333075 -0.0333068 -0.0333144 -0.0333362 -0.0999322 -0.0999298 -0.099916 -0.0999328 -0.100002 -0.166597 -0.166572 -0.16651 -0.166514 -0.166652 -0.233301 -0.23323 -0.23308 -0.233025 -0.233272 -0.299947 -0.299721 -0.299664 -0.299614 -0.299754 
</DataArray>
<DataArray Name="Stress_12" format="ascii" type="Float64">
-1.74686 -0.997071 -0.000187625 0.996608 1.74654 0.69211 -0.20465 -0.000198249 0.204386 -0.691956 0.544538 0.526225 1.23444e-05 -0.526113 -0.544465 0.323606 0.409323 0.000159804 -0.409048 -0.323558 0.18661 0.266173 0.000213726 -0.265832 -0.186561 0.18661 0.266173 0.000213726 -0.265832 -0.186561 0.323606 0.409323 0.000159804 -0.409048 -0.323558 0.544538 0.526225 1.23444e-05 -0.526113 -0.544465 0.69211 -0.20465 -0.000198249 0.204386 -0.691956 -1.74686 -0.997071 -0.000187625 0.996608 1.74654 0.000424701 0.000147638 8.9204e-05 0.000132801 0.00018134 2.01069e-05 0.000138158 0.000117206 8.01703e-05 -4.80182e-05 -0.000109927 -2.3306e-05 9.21304e-06 -3.12414e-05 -4.22823e-05 -0.000159813 -0.000112078 -8.75113e-05 -7.92265e-05 -4.36367e-05 -0.000175068 -0.000150412 -0.000128112 -0.000102503 -4.74033e-05 -0.000175068 -0.000150412 -0.000128112 -0.000102503 -4.74033e-05 -0.000159813 -0.000112078 -8.75113e-05 -7.92265e-05 -4.36367e-05 -0.000109927 -2.3306e-05 9.21304e-06 -3.12414e-05 -4.22823e-05 2.01069e-05 0.000138158 0.000117206 8.01703e-05 -4.80182e-05 0.000424701 0.000147638 8.9204e-05 0.000132801 0.00018134 
</DataArray>
<DataArray Name="Stress_13" format="ascii" type="Float64">
0 0 0 0 0 0 0 0 0 0 0 0 0 0 0 0 0 0 0 0 0 0 0 0 0 0 0 0 0 0 0 0 0 0 0 0 0 0 0 0 0 0 0 0 0 0 0 0 0 0 0 0 0 0 0 0 0 0 0 0 0 0 0 0 0 0 0 0 0 0 0 0 0 0 0 0 0 0 0 0 0 0 0 0 0 0 0 0 0 0 0 0 0 0 0 0 0 0 0 0 
</DataArray>
<DataArray Name="Stress_23" format="ascii" type="Float64">
0 0 0 0 0 0 0 0 0 0 0 0 0 0 0 0 0 0 0 0 0 0 0 0 0 0 0 0 0 0 0 0 0 0 0 0 0 0 0 0 0 0 0 0 0 0 0 0 0 0 0 0 0 0 0 0 0 0 0 0 0 0 0 0 0 0 0 0 0 0 0 0 0 0 0 0 0 0 0 0 0 0 0 0 0 0 0 0 0 0 0 0 0 0 0 0 0 0 0 0 
</DataArray>
<DataArray Name="Stress_33" format="ascii" type="Float64">
1193.09 1192.98 1193.11 1192.98 1193.09 929.177 928.322 928.194 928.322 929.176 663.636 663.358 663.206 663.358 663.636 398.168 398.06 398.017 398.06 398.168 132.716 132.695 132.682 132.695 132.716 -132.716 -132.695 -132.682 -132.695 -132.716 -398.168 -398.06 -398.017 -398.06 -398.168 -663.636 -663.358 -663.206 -663.358 -663.636 -929.177 -928.322 -928.194 -928.322 -929.176 -1193.09 -1192.98 -1193.11 -1192.98 -1193.09 0.119483 0.119387 0.119345 0.119309 0.119312 0.0928131 0.0928526 0.0928388 0.0928446 0.0929255 0.0662963 0.0663094 0.0663229 0.0663438 0.0663755 0.0397771 0.0397862 0.0397964 0.0398099 0.0398279 0.0132595 0.0132621 0.0132658 0.0132705 0.0132762 -0.0132595 -0.0132621 -0.0132658 -0.0132705 -0.0132762 -0.0397771 -0.0397862 -0.0397964 -0.0398099 -0.0398279 -0.0662963 -0.0663094 -0.0663229 -0.0663438 -0.0663755 -0.0928131 -0.0928526 -0.0928388 -0.0928446 -0.0929255 -0.119483 -0.119387 -0.119345 -0.119309 -0.119312 
</DataArray>
</CellData>
<Points>
<DataArray NumberOfComponents="3" format="ascii" type="Float64">
-0.05 -0.05 0 -0.05 0 0 -0.05 -0.04 0 -0.05 -0.03 0 -0.05 -0.02 0 -0.05 -0.01 0 0 0 0 -0.04 0 0 -0.03 0 0 -0.02 0 0 -0.01 0 0 0 -0.05 0 0 -0.01 0 0 -0.02 0 0 -0.03 0 0 -0.04 0 -0.01 -0.05 0 -0.02 -0.05 0 -0.03 -0.05 0 -0.04 -0.05 0 -0.04 -0.04 0 -0.04 -0.03 0 -0.04 -0.02 0 -0.04 -0.01 0 -0.03 -0.04 0 -0.03 -0.03 0 -0.03 -0.02 0 -0.03 -0.01 0 -0.02 -0.04 0 -0.02 -0.03 0 -0.02 -0.02 0 -0.02 -0.01 0 -0.01 -0.04 0 -0.01 -0.03 0 -0.01 -0.02 0 -0.01 -0.01 0 -0.05 0.05 0 -0.05 0.01 0 -0.05 0.02 0 -0.05 0.03 0 -0.05 0.04 0 0 0.05 0 -0.04 0.05 0 -0.03 0.05 0 -0.02 0.05 0 -0.01 0.05 0 0 0.04 0 0 0.03 0 0 0.02 0 0 0.01 0 -0.04 0.01 0 -0.04 0.02 0 -0.04 0.03 0 -0.04 0.04 0 -0.03 0.01 0 -0.03 0.02 0 -0.03 0.03 0 -0.03 0.04 0 -0.02 0.01 0 -0.02 0.02 0 -0.02 0.03 0 -0.02 0.04 0 -0.01 0.01 0 -0.01 0.02 0 -0.01 0.03 0 -0.01 0.04 0 0.05 0 0 0.01 0 0 0.02 0 0 0.03 0 0 0.04 0 0 0.05 -0.05 0 0.05 -0.01 0 0.05 -0.02 0 0.05 -0.03 0 0.05 -0.04 0 0.04 -0.05 0 0.03 -0.05 0 0.02 -0.05 0 0.01 -0.05 0 0.01 -0.04 0 0.01 -0.03 0 0.01 -0.02 0 0.01 -0.01 0 0.02 -0.04 0 0.02 -0.03 0 0.02 -0.02 0 0.02 -0.01 0 0.03 -0.04 0 0.03 -0.03 0 0.03 -0.02 0 0.03 -0.01 0 0.04 -0.04 0 0.04 -0.03 0 0.04 -0.02 0 0.04 -0.01 0 0.05 0.05 0 0.01 0.05 0 0.02 0.05 0 0.03 0.05 0 0.04 0.05 0 0.05 0.04 0 0.05 0.03 0 0.05 0.02 0 0.05 0.01 0 0.01 0.01 0 0.01 0.02 0 0.01 0.03 0 0.01 0.04 0 0.02 0.01 0 0.02 0.02 0 0.02 0.03 0 0.02 0.04 0 0.03 0.01 0 0.03 0.02 0 0.03 0.03 0 0.03 0.04 0 0.04 0.01 0 0.04 0.02 0 0.04 0.03 0 0.04 0.04 0 
</DataArray>
</Points>
<Cells>
<DataArray Name="connectivity" format="ascii" type="Int64">
0 19 20 2 19 18 24 20 18 17 28 24 17 16 32 28 16 11 15 32 2 20 21 3 20 24 25 21 24 28 29 25 28 32 33 29 32 15 14 33 3 21 22 4 21 25 26 22 25 29 30 26 29 33 34 30 33 14 13 34 4 22 23 5 22 26 27 23 26 30 31 27 30 34 35 31 34 13 12 35 5 23 7 1 23 27 8 7 27 31 9 8 31 35 10 9 35 12 6 10 1 7 50 37 7 8 54 50 8 9 58 54 9 10 62 58 10 6 49 62 37 50 51 38 50 54 55 51 54 58 59 55 58 62 63 59 62 49 48 63 38 51 52 39 51 55 56 52 55 59 60 56 59 63 64 60 63 48 47 64 39 52 53 40 52 56 57 53 56 60 61 57 60 64 65 61 64 47 46 65 40 53 42 36 53 57 43 42 57 61 44 43 61 65 45 44 65 46 41 45 11 79 80 15 79 78 84 80 78 77 88 84 77 76 92 88 76 71 75 92 15 80 81 14 80 84 85 81 84 88 89 85 88 92 93 89 92 75 74 93 14 81 82 13 81 85 86 82 85 89 90 86 89 93 94 90 93 74 73 94 13 82 83 12 82 86 87 83 86 90 91 87 90 94 95 91 94 73 72 95 12 83 67 6 83 87 68 67 87 91 69 68 91 95 70 69 95 72 66 70 6 67 105 49 67 68 109 105 68 69 113 109 69 70 117 113 70 66 104 117 49 105 106 48 105 109 110 106 109 113 114 110 113 117 118 114 117 104 103 118 48 106 107 47 106 110 111 107 110 114 115 111 114 118 119 115 118 103 102 119 47 107 108 46 107 111 112 108 111 115 116 112 115 119 120 116 119 102 101 120 46 108 97 41 108 112 98 97 112 116 99 98 116 120 100 99 120 101 96 100 
</DataArray>
<DataArray Name="offsets" format="ascii" type="Int64">
4 8 12 16 20 24 28 32 36 40 44 48 52 56 60 64 68 72 76 80 84 88 92 96 100 104 108 112 116 120 124 128 132 136 140 144 148 152 156 160 164 168 172 176 180 184 188 192 196 200 204 208 212 216 220 224 228 232 236 240 244 248 252 256 260 264 268 272 276 280 284 288 292 296 300 304 308 312 316 320 324 328 332 336 340 344 348 352 356 360 364 368 372 376 380 384 388 392 396 400 
</DataArray>
<DataArray Name="types" format="ascii" type="Int8">
9 9 9 9 9 9 9 9 9 9 9 9 9 9 9 9 9 9 9 9 9 9 9 9 9 9 9 9 9 9 9 9 9 9 9 9 9 9 9 9 9 9 9 9 9 9 9 9 9 9 9 9 9 9 9 9 9 9 9 9 9 9 9 9 9 9 9 9 9 9 9 9 9 9 9 9 9 9 9 9 9 9 9 9 9 9 9 9 9 9 9 9 9 9 9 9 9 9 9 9 
</DataArray>
</Cells>
</Piece>
</UnstructuredGrid>
</VTKFile>
