<?xml version="1.0"?>
<VTKFile byte_order="LittleEndian" type="UnstructuredGrid" version="0.1">
<UnstructuredGrid>
<Piece NumberOfCells="4" NumberOfPoints="9">
<PointData>
<DataArray Name="Warping_X" format="ascii" type="Float64">
-8.62454e-11 -3.09994e-11 8.51182e-11 1.01344e-11 1.12726e-12 5.29915e-11 4.2261e-11 -3.09994e-11 -4.33883e-11 
</DataArray>
<DataArray Name="Warping_Y" format="ascii" type="Float64">
-4.33883e-11 5.29915e-11 8.51182e-11 -3.09994e-11 1.12726e-12 -3.09994e-11 4.2261e-11 1.01344e-11 -8.62454e-11 
</DataArray>
<DataArray Name="Warping_Z" format="ascii" type="Float64">
0 0 0 0 0 0 0 0 0 
</DataArray>
</PointData>
<CellData>
<DataArray Name="MaterialId" format="ascii" type="Float64">
4 4 4 4 
</DataArray>
<DataArray Name="FiberAngle" format="ascii" type="Float64">
0 0 0 0 
</DataArray>
<DataArray Name="Strain_11" format="ascii" type="Float64">
-4.62389e-10 -1.67982e-09 8.22675e-10 -3.94754e-10 
</DataArray>
<DataArray Name="Strain_22" format="ascii" type="Float64">
-3.94754e-10 -1.67982e-09 8.22675e-10 -4.62389e-10 
</DataArray>
<DataArray Name="Strain_12" format="ascii" type="Float64">
6.44143e-19 -6.44144e-19 -6.44144e-19 6.44144e-19 
</DataArray>
<DataArray Name="Strain_13" format="ascii" type="Float64">
0 0 0 0 
</DataArray>
<DataArray Name="Strain_23" format="ascii" type="Float64">
0 0 0 0 
</DataArray>
<DataArray Name="Strain_33" format="ascii" type="Float64">
1 1 1 1 
</DataArray>
<DataArray Name="Stress_11" format="ascii" type="Float64">
4.03846e+10 4.03846e+10 4.03846e+10 4.03846e+10 
</DataArray>
<DataArray Name="Stress_22" format="ascii" type="Float64">
4.03846e+10 4.03846e+10 4.03846e+10 4.03846e+10 
</DataArray>
<DataArray Name="Stress_12" format="ascii" type="Float64">
1.73423e-08 -1.73423e-08 -1.73423e-08 1.73423e-08 
</DataArray>
<DataArray Name="Stress_13" format="ascii" type="Float64">
0 0 0 0 
</DataArray>
<DataArray Name="Stress_23" format="ascii" type="Float64">
0 0 0 0 
</DataArray>
<DataArray Name="Stress_33" format="ascii" type="Float64">
9.42308e+10 9.42308e+10 9.42308e+10 9.42308e+10 
</DataArray>
</CellData>
<Points>
<DataArray NumberOfComponents="3" format="ascii" type="Float64">
0.1 0 0 0.05 0 0 0 0 0 0.1 0.05 0 0.05 0.05 0 0 0.05 0 0.1 0.1 0 0.05 0.1 0 0 0.1 0 
</DataArray>
</Points>
<Cells>
<DataArray Name="connectivity" format="ascii" type="Int64">
0 3 4 1 1 4 5 2 3 6 7 4 4 7 8 5 
</DataArray>
<DataArray Name="offsets" format="ascii" type="Int64">
4 8 12 16 
</DataArray>
<DataArray Name="types" format="ascii" type="Int8">
9 9 9 9 
</DataArray>
</Cells>
</Piece>
</UnstructuredGrid>
</VTKFile>
