<?xml version="1.0"?>
<VTKFile byte_order="LittleEndian" type="UnstructuredGrid" version="0.1">
<UnstructuredGrid>
<Piece NumberOfCells="4" NumberOfPoints="9">
<PointData>
<DataArray Name="Warping_X" format="ascii" type="Float64">
-1.12726e-11 -6.19987e-10 -1.12726e-11 6.3126e-10 2.25451e-11 6.3126e-10 -1.12726e-11 -6.19987e-10 -1.12726e-11 
</DataArray>
<DataArray Name="Warping_Y" format="ascii" type="Float64">
-1.28506e-09 -6.21383e-18 1.28506e-09 3.19971e-25 -8.2188e-26 4.57561e-25 1.28506e-09 6.21383e-18 -1.28506e-09 
</DataArray>
<DataArray Name="Warping_Z" format="ascii" type="Float64">
0 0 0 0 0 0 0 0 0 
</DataArray>
</PointData>
<CellData>
<DataArray Name="MaterialId" format="ascii" type="Float64">
4 4 4 4 
</DataArray>
<DataArray Name="FiberAngle" format="ascii" type="Float64">
0 0 0 0 
</DataArray>
<DataArray Name="Strain_11" format="ascii" type="Float64">
1.21743e-08 -1.21743e-08 1.21743e-08 -1.21743e-08 
</DataArray>
<DataArray Name="Strain_22" format="ascii" type="Float64">
1.28506e-08 -1.28506e-08 1.28506e-08 -1.28506e-08 
</DataArray>
<DataArray Name="Strain_12" format="ascii" type="Float64">
1.28829e-17 -1.28829e-17 -1.28829e-17 1.28829e-17 
</DataArray>
<DataArray Name="Strain_13" format="ascii" type="Float64">
0 0 0 0 
</DataArray>
<DataArray Name="Strain_23" format="ascii" type="Float64">
0 0 0 0 
</DataArray>
<DataArray Name="Strain_33" format="ascii" type="Float64">
-0.075 -0.025 -0.075 -0.025 
</DataArray>
<DataArray Name="Stress_11" format="ascii" type="Float64">
-3.02884e+09 -1.00962e+09 -3.02884e+09 -1.00962e+09 
</DataArray>
<DataArray Name="Stress_22" format="ascii" type="Float64">
-3.02884e+09 -1.00962e+09 -3.02884e+09 -1.00962e+09 
</DataArray>
<DataArray Name="Stress_12" format="ascii" type="Float64">
3.46845e-07 -3.46845e-07 -3.46846e-07 3.46845e-07 
</DataArray>
<DataArray Name="Stress_13" format="ascii" type="Float64">
0 0 0 0 
</DataArray>
<DataArray Name="Stress_23" format="ascii" type="Float64">
0 0 0 0 
</DataArray>
<DataArray Name="Stress_33" format="ascii" type="Float64">
-7.06731e+09 -2.35577e+09 -7.06731e+09 -2.35577e+09 
</DataArray>
</CellData>
<Points>
<DataArray NumberOfComponents="3" format="ascii" type="Float64">
0.1 0 0 0.05 0 0 0 0 0 0.1 0.05 0 0.05 0.05 0 0 0.05 0 0.1 0.1 0 0.05 0.1 0 0 0.1 0 
</DataArray>
</Points>
<Cells>
<DataArray Name="connectivity" format="ascii" type="Int64">
0 3 4 1 1 4 5 2 3 6 7 4 4 7 8 5 
</DataArray>
<DataArray Name="offsets" format="ascii" type="Int64">
4 8 12 16 
</DataArray>
<DataArray Name="types" format="ascii" type="Int8">
9 9 9 9 
</DataArray>
</Cells>
</Piece>
</UnstructuredGrid>
</VTKFile>
