<?xml version="1.0"?>
<VTKFile byte_order="LittleEndian" type="UnstructuredGrid" version="0.1">
<UnstructuredGrid>
<Piece NumberOfCells="100" NumberOfPoints="121">
<PointData>
<DataArray Name="Warping_X" format="ascii" type="Float64">
8.57236e-11 5.35405e-11 8.43754e-11 8.0512e-11 7.4086e-11 6.50971e-11 3.46796e-14 3.77103e-11 2.44439e-11 1.37413e-11 5.60437e-12 -3.21132e-11 -1.25242e-12 -5.11345e-12 -1.1547e-11 -2.05493e-11 -1.3685e-11 7.3065e-12 3.08641e-11 5.69968e-11 5.82769e-11 5.69753e-11 5.31184e-11 4.66978e-11 3.47201e-11 3.60011e-11 3.47146e-11 3.08633e-11 1.37304e-11 1.75862e-11 1.88736e-11 1.75925e-11 -4.69243e-12 1.73622e-12 5.59669e-12 6.88665e-12 -4.30906e-11 3.94129e-11 2.27102e-11 3.42381e-12 -1.84614e-11 -3.21132e-11 -4.59721e-11 -4.63299e-11 -4.41456e-11 -3.94087e-11 -2.05493e-11 -1.1547e-11 -5.11345e-12 -1.25242e-12 2.6152e-11 1.20186e-11 -4.6968e-12 -2.40185e-11 1.54528e-11 3.88567e-12 -1.02654e-11 -2.70102e-11 7.31719e-12 -1.6835e-12 -1.32645e-11 -2.74238e-11 1.74819e-12 -4.68348e-12 -1.36908e-11 -2.52694e-11 1.06834e-11 -2.96706e-12 -3.40152e-12 -1.27042e-12 3.42457e-12 -8.59477e-11 -3.44421e-12 -2.01469e-11 -3.94333e-11 -6.13185e-11 -8.02578e-11 -7.20442e-11 -6.12884e-11 -4.79801e-11 -3.38408e-11 -2.22622e-11 -1.32549e-11 -6.82323e-12 -4.45667e-11 -3.04073e-11 -1.88264e-11 -9.82567e-12 -5.27245e-11 -3.59797e-11 -2.18286e-11 -1.02615e-11 -5.83042e-11 -3.89825e-11 -2.22671e-11 -8.13374e-12 4.28664e-11 -2.22565e-11 -9.83636e-12 5.14978e-12 2.27111e-11 4.15183e-11 3.76549e-11 3.12288e-11 2.22399e-11 -1.68478e-12 -2.97473e-12 -6.83521e-12 -1.32639e-11 4.49667e-13 1.73075e-12 4.43319e-13 -3.41245e-12 5.14904e-12 9.00032e-12 1.02868e-11 9.00586e-12 1.24121e-11 1.88327e-11 2.26896e-11 2.39912e-11 
</DataArray>
<DataArray Name="Warping_Y" format="ascii" type="Float64">
8.57236e-11 -3.21132e-11 5.69968e-11 3.08641e-11 7.3065e-12 -1.3685e-11 3.46796e-14 -2.05493e-11 -1.1547e-11 -5.11345e-12 -1.25242e-12 5.35405e-11 5.60437e-12 1.37413e-11 2.44439e-11 3.77103e-11 6.50971e-11 7.4086e-11 8.0512e-11 8.43754e-11 5.82769e-11 3.47201e-11 1.37304e-11 -4.69243e-12 5.69753e-11 3.60011e-11 1.75862e-11 1.73622e-12 5.31184e-11 3.47146e-11 1.88736e-11 5.59669e-12 4.66978e-11 3.08633e-11 1.75925e-11 6.88665e-12 -8.59477e-11 -4.79801e-11 -6.12884e-11 -7.20442e-11 -8.02578e-11 1.06834e-11 -6.13185e-11 -3.94333e-11 -2.01469e-11 -3.44421e-12 3.42457e-12 -1.27042e-12 -3.40152e-12 -2.96706e-12 -3.38408e-11 -4.45667e-11 -5.27245e-11 -5.83042e-11 -2.22622e-11 -3.04073e-11 -3.59797e-11 -3.89825e-11 -1.32549e-11 -1.88264e-11 -2.18286e-11 -2.22671e-11 -6.82323e-12 -9.82567e-12 -1.02615e-11 -8.13374e-12 -3.21132e-11 -1.25242e-12 -5.11345e-12 -1.1547e-11 -2.05493e-11 -4.30906e-11 -3.94087e-11 -4.41456e-11 -4.63299e-11 -4.59721e-11 -1.84614e-11 3.42381e-12 2.27102e-11 3.94129e-11 2.6152e-11 1.54528e-11 7.31719e-12 1.74819e-12 1.20186e-11 3.88567e-12 -1.6835e-12 -4.68348e-12 -4.6968e-12 -1.02654e-11 -1.32645e-11 -1.36908e-11 -2.40185e-11 -2.70102e-11 -2.74238e-11 -2.52694e-11 4.28664e-11 2.22399e-11 3.12288e-11 3.76549e-11 4.15183e-11 2.27111e-11 5.14978e-12 -9.83636e-12 -2.22565e-11 -1.68478e-12 4.49667e-13 5.14904e-12 1.24121e-11 -2.97473e-12 1.73075e-12 9.00032e-12 1.88327e-11 -6.83521e-12 4.43319e-13 1.02868e-11 2.26896e-11 -1.32639e-11 -3.41245e-12 9.00586e-12 2.39912e-11 
</DataArray>
<DataArray Name="Warping_Z" format="ascii" type="Float64">
0 0 0 0 0 0 0 0 0 0 0 0 0 0 0 0 0 0 0 0 0 0 0 0 0 0 0 0 0 0 0 0 0 0 0 0 0 0 0 0 0 0 0 0 0 0 0 0 0 0 0 0 0 0 0 0 0 0 0 0 0 0 0 0 0 0 0 0 0 0 0 0 0 0 0 0 0 0 0 0 0 0 0 0 0 0 0 0 0 0 0 0 0 0 0 0 0 0 0 0 0 0 0 0 0 0 0 0 0 0 0 0 0 0 0 0 0 0 0 0 0 
</DataArray>
</PointData>
<CellData>
<DataArray Name="MaterialId" format="ascii" type="Float64">
4 4 4 4 4 4 4 4 4 4 4 4 4 4 4 4 4 4 4 4 4 4 4 4 4 4 4 4 4 4 4 4 4 4 4 4 4 4 4 4 4 4 4 4 4 4 4 4 4 4 4 4 4 4 4 4 4 4 4 4 4 4 4 4 4 4 4 4 4 4 4 4 4 4 4 4 4 4 4 4 4 4 4 4 4 4 4 4 4 4 4 4 4 4 4 4 4 4 4 4 
</DataArray>
<DataArray Name="FiberAngle" format="ascii" type="Float64">
0 0 0 0 0 0 0 0 0 0 0 0 0 0 0 0 0 0 0 0 0 0 0 0 0 0 0 0 0 0 0 0 0 0 0 0 0 0 0 0 0 0 0 0 0 0 0 0 0 0 0 0 0 0 0 0 0 0 0 0 0 0 0 0 0 0 0 0 0 0 0 0 0 0 0 0 0 0 0 0 0 0 0 0 0 0 0 0 0 0 0 0 0 0 0 0 0 0 0 0 
</DataArray>
<DataArray Name="Strain_11" format="ascii" type="Float64">
-2.74127e-09 -2.48447e-09 -2.22737e-09 -1.97072e-09 -1.71425e-09 -2.48176e-09 -2.22655e-09 -1.97023e-09 -1.71364e-09 -1.45701e-09 -2.22522e-09 -1.9689e-09 -1.71279e-09 -1.45634e-09 -1.19967e-09 -1.96834e-09 -1.71191e-09 -1.45559e-09 -1.19914e-09 -9.42461e-10 -1.71147e-09 -1.45505e-09 -1.19867e-09 -9.42142e-10 -6.85438e-10 -1.45456e-09 -1.19828e-09 -9.41907e-10 -6.85298e-10 -4.28515e-10 -1.19763e-09 -9.41607e-10 -6.85239e-10 -4.28449e-10 -1.71529e-10 -9.4061e-10 -6.85078e-10 -4.28413e-10 -1.71313e-10 8.56874e-11 -6.83889e-10 -4.28013e-10 -1.70637e-10 8.64079e-11 3.4319e-10 -4.21933e-10 -1.67475e-10 8.85326e-11 3.44567e-10 6.00777e-10 -1.45792e-09 -1.20171e-09 -9.45675e-10 -6.89668e-10 -4.3521e-10 -1.20033e-09 -9.43551e-10 -6.86506e-10 -4.2913e-10 -1.73254e-10 -9.4283e-10 -6.8583e-10 -4.2873e-10 -1.72065e-10 8.34668e-11 -6.85613e-10 -4.28694e-10 -1.71904e-10 8.44638e-11 3.40484e-10 -4.28628e-10 -1.71845e-10 8.47638e-11 3.41137e-10 5.97417e-10 -1.71705e-10 8.49991e-11 3.41524e-10 5.97904e-10 8.5433e-10 8.53181e-11 3.41997e-10 5.98447e-10 8.54771e-10 1.1112e-09 3.42527e-10 5.99201e-10 8.55652e-10 1.11176e-09 1.36807e-09 5.99864e-10 8.56497e-10 1.11309e-09 1.36941e-09 1.62462e-09 8.5711e-10 1.11358e-09 1.37022e-09 1.62733e-09 1.88412e-09 
</DataArray>
<DataArray Name="Strain_22" format="ascii" type="Float64">
-2.74127e-09 -2.48176e-09 -2.22522e-09 -1.96834e-09 -1.71147e-09 -2.48447e-09 -2.22655e-09 -1.9689e-09 -1.71191e-09 -1.45505e-09 -2.22737e-09 -1.97023e-09 -1.71279e-09 -1.45559e-09 -1.19867e-09 -1.97072e-09 -1.71364e-09 -1.45634e-09 -1.19914e-09 -9.42142e-10 -1.71425e-09 -1.45701e-09 -1.19967e-09 -9.42461e-10 -6.85438e-10 -1.45792e-09 -1.20033e-09 -9.4283e-10 -6.85613e-10 -4.28628e-10 -1.20171e-09 -9.43551e-10 -6.8583e-10 -4.28694e-10 -1.71845e-10 -9.45675e-10 -6.86506e-10 -4.2873e-10 -1.71904e-10 8.47638e-11 -6.89668e-10 -4.2913e-10 -1.72065e-10 8.44638e-11 3.41137e-10 -4.3521e-10 -1.73254e-10 8.34668e-11 3.40484e-10 5.97417e-10 -1.45456e-09 -1.19763e-09 -9.4061e-10 -6.83889e-10 -4.21933e-10 -1.19828e-09 -9.41607e-10 -6.85078e-10 -4.28013e-10 -1.67475e-10 -9.41907e-10 -6.85239e-10 -4.28413e-10 -1.70637e-10 8.85326e-11 -6.85298e-10 -4.28449e-10 -1.71313e-10 8.64079e-11 3.44567e-10 -4.28515e-10 -1.71529e-10 8.56874e-11 3.4319e-10 6.00777e-10 -1.71705e-10 8.53181e-11 3.42527e-10 5.99864e-10 8.5711e-10 8.49991e-11 3.41997e-10 5.99201e-10 8.56497e-10 1.11358e-09 3.41524e-10 5.98447e-10 8.55652e-10 1.11309e-09 1.37022e-09 5.97904e-10 8.54771e-10 1.11176e-09 1.36941e-09 1.62733e-09 8.5433e-10 1.1112e-09 1.36807e-09 1.62462e-09 1.88412e-09 
</DataArray>
<DataArray Name="Strain_12" format="ascii" type="Float64">
-6.79815e-12 -1.44069e-12 -1.49737e-13 3.55551e-13 6.21341e-13 -1.44069e-12 -2.06779e-12 -3.34996e-13 6.30766e-13 1.19453e-12 -1.49737e-13 -3.34996e-13 9.66689e-14 7.77289e-13 1.17042e-12 3.55551e-13 6.30766e-13 7.77289e-13 8.86978e-13 8.75737e-13 6.21341e-13 1.19453e-12 1.17042e-12 8.75737e-13 4.81867e-13 8.64859e-13 1.57699e-12 1.28272e-12 6.19326e-13 -4.04041e-26 1.24747e-12 1.87516e-12 1.02302e-12 1.107e-24 -6.19326e-13 1.98259e-12 1.88279e-12 5.50076e-25 -1.02302e-12 -1.28272e-12 3.31675e-12 1.00813e-24 -1.88279e-12 -1.87516e-12 -1.57699e-12 6.72084e-25 -3.31675e-12 -1.98259e-12 -1.24747e-12 -8.64859e-13 8.64859e-13 1.24747e-12 1.98259e-12 3.31675e-12 4.68228e-24 1.57699e-12 1.87516e-12 1.88279e-12 2.94455e-24 -3.31675e-12 1.28272e-12 1.02302e-12 8.08137e-25 -1.88279e-12 -1.98259e-12 6.19326e-13 1.81533e-24 -1.02302e-12 -1.87516e-12 -1.24747e-12 -1.2324e-25 -6.19326e-13 -1.28272e-12 -1.57699e-12 -8.64859e-13 -4.81867e-13 -8.75737e-13 -1.17042e-12 -1.19453e-12 -6.21341e-13 -8.75737e-13 -8.86978e-13 -7.77289e-13 -6.30766e-13 -3.55551e-13 -1.17042e-12 -7.77289e-13 -9.66689e-14 3.34996e-13 1.49737e-13 -1.19453e-12 -6.30766e-13 3.34996e-13 2.06779e-12 1.44069e-12 -6.21341e-13 -3.55551e-13 1.49737e-13 1.44069e-12 6.79815e-12 
</DataArray>
<DataArray Name="Strain_13" format="ascii" type="Float64">
0 0 0 0 0 0 0 0 0 0 0 0 0 0 0 0 0 0 0 0 0 0 0 0 0 0 0 0 0 0 0 0 0 0 0 0 0 0 0 0 0 0 0 0 0 0 0 0 0 0 0 0 0 0 0 0 0 0 0 0 0 0 0 0 0 0 0 0 0 0 0 0 0 0 0 0 0 0 0 0 0 0 0 0 0 0 0 0 0 0 0 0 0 0 0 0 0 0 0 0 
</DataArray>
<DataArray Name="Strain_23" format="ascii" type="Float64">
0 0 0 0 0 0 0 0 0 0 0 0 0 0 0 0 0 0 0 0 0 0 0 0 0 0 0 0 0 0 0 0 0 0 0 0 0 0 0 0 0 0 0 0 0 0 0 0 0 0 0 0 0 0 0 0 0 0 0 0 0 0 0 0 0 0 0 0 0 0 0 0 0 0 0 0 0 0 0 0 0 0 0 0 0 0 0 0 0 0 0 0 0 0 0 0 0 0 0 0 
</DataArray>
<DataArray Name="Strain_33" format="ascii" type="Float64">
1 1 1 1 1 1 1 1 1 1 1 1 1 1 1 1 1 1 1 1 1 1 1 1 1 1 1 1 1 1 1 1 1 1 1 1 1 1 1 1 1 1 1 1 1 1 1 1 1 1 1 1 1 1 1 1 1 1 1 1 1 1 1 1 1 1 1 1 1 1 1 1 1 1 1 1 1 1 1 1 1 1 1 1 1 1 1 1 1 1 1 1 1 1 1 1 1 1 1 1 
</DataArray>
<DataArray Name="Stress_11" format="ascii" type="Float64">
4.03846e+10 4.03846e+10 4.03846e+10 4.03846e+10 4.03846e+10 4.03846e+10 4.03846e+10 4.03846e+10 4.03846e+10 4.03846e+10 4.03846e+10 4.03846e+10 4.03846e+10 4.03846e+10 4.03846e+10 4.03846e+10 4.03846e+10 4.03846e+10 4.03846e+10 4.03846e+10 4.03846e+10 4.03846e+10 4.03846e+10 4.03846e+10 4.03846e+10 4.03846e+10 4.03846e+10 4.03846e+10 4.03846e+10 4.03846e+10 4.03846e+10 4.03846e+10 4.03846e+10 4.03846e+10 4.03846e+10 4.03846e+10 4.03846e+10 4.03846e+10 4.03846e+10 4.03846e+10 4.03846e+10 4.03846e+10 4.03846e+10 4.03846e+10 4.03846e+10 4.03846e+10 4.03846e+10 4.03846e+10 4.03846e+10 4.03846e+10 4.03846e+10 4.03846e+10 4.03846e+10 4.03846e+10 4.03846e+10 4.03846e+10 4.03846e+10 4.03846e+10 4.03846e+10 4.03846e+10 4.03846e+10 4.03846e+10 4.03846e+10 4.03846e+10 4.03846e+10 4.03846e+10 4.03846e+10 4.03846e+10 4.03846e+10 4.03846e+10 4.03846e+10 4.03846e+10 4.03846e+10 4.03846e+10 4.03846e+10 4.03846e+10 4.03846e+10 4.03846e+10 4.03846e+10 4.03846e+10 4.03846e+10 4.03846e+10 4.03846e+10 4.03846e+10 4.03846e+10 4.03846e+10 4.03846e+10 4.03846e+10 4.03846e+10 4.03846e+10 4.03846e+10 4.03846e+10 4.03846e+10 4.03846e+10 4.03846e+10 4.03846e+10 4.03846e+10 4.03846e+10 4.03846e+10 4.03846e+10 
</DataArray>
<DataArray Name="Stress_22" format="ascii" type="Float64">
4.03846e+10 4.03846e+10 4.03846e+10 4.03846e+10 4.03846e+10 4.03846e+10 4.03846e+10 4.03846e+10 4.03846e+10 4.03846e+10 4.03846e+10 4.03846e+10 4.03846e+10 4.03846e+10 4.03846e+10 4.03846e+10 4.03846e+10 4.03846e+10 4.03846e+10 4.03846e+10 4.03846e+10 4.03846e+10 4.03846e+10 4.03846e+10 4.03846e+10 4.03846e+10 4.03846e+10 4.03846e+10 4.03846e+10 4.03846e+10 4.03846e+10 4.03846e+10 4.03846e+10 4.03846e+10 4.03846e+10 4.03846e+10 4.03846e+10 4.03846e+10 4.03846e+10 4.03846e+10 4.03846e+10 4.03846e+10 4.03846e+10 4.03846e+10 4.03846e+10 4.03846e+10 4.03846e+10 4.03846e+10 4.03846e+10 4.03846e+10 4.03846e+10 4.03846e+10 4.03846e+10 4.03846e+10 4.03846e+10 4.03846e+10 4.03846e+10 4.03846e+10 4.03846e+10 4.03846e+10 4.03846e+10 4.03846e+10 4.03846e+10 4.03846e+10 4.03846e+10 4.03846e+10 4.03846e+10 4.03846e+10 4.03846e+10 4.03846e+10 4.03846e+10 4.03846e+10 4.03846e+10 4.03846e+10 4.03846e+10 4.03846e+10 4.03846e+10 4.03846e+10 4.03846e+10 4.03846e+10 4.03846e+10 4.03846e+10 4.03846e+10 4.03846e+10 4.03846e+10 4.03846e+10 4.03846e+10 4.03846e+10 4.03846e+10 4.03846e+10 4.03846e+10 4.03846e+10 4.03846e+10 4.03846e+10 4.03846e+10 4.03846e+10 4.03846e+10 4.03846e+10 4.03846e+10 4.03846e+10 
</DataArray>
<DataArray Name="Stress_12" format="ascii" type="Float64">
-0.183026 -0.0387876 -0.00403136 0.00957249 0.0167284 -0.0387876 -0.0556712 -0.0090191 0.0169821 0.0321604 -0.00403136 -0.0090191 0.00260262 0.0209269 0.0315111 0.00957249 0.0169821 0.0209269 0.0238801 0.0235775 0.0167284 0.0321604 0.0315111 0.0235775 0.0129733 0.0232846 0.0424572 0.0345347 0.0166741 -1.0878e-15 0.0335856 0.0504849 0.0275427 2.98038e-14 -0.0166741 0.0533774 0.0506903 1.48097e-14 -0.0275427 -0.0345347 0.089297 2.71418e-14 -0.0506903 -0.0504849 -0.0424572 1.80945e-14 -0.089297 -0.0533774 -0.0335856 -0.0232846 0.0232846 0.0335856 0.0533774 0.089297 1.26061e-13 0.0424572 0.0504849 0.0506903 7.92762e-14 -0.089297 0.0345347 0.0275427 2.17575e-14 -0.0506903 -0.0533774 0.0166741 4.8874e-14 -0.0275427 -0.0504849 -0.0335856 -3.31799e-15 -0.0166741 -0.0345347 -0.0424572 -0.0232846 -0.0129733 -0.0235775 -0.0315111 -0.0321604 -0.0167284 -0.0235775 -0.0238801 -0.0209269 -0.0169821 -0.00957249 -0.0315111 -0.0209269 -0.00260262 0.0090191 0.00403136 -0.0321604 -0.0169821 0.0090191 0.0556712 0.0387876 -0.0167284 -0.00957249 0.00403136 0.0387876 0.183026 
</DataArray>
<DataArray Name="Stress_13" format="ascii" type="Float64">
0 0 0 0 0 0 0 0 0 0 0 0 0 0 0 0 0 0 0 0 0 0 0 0 0 0 0 0 0 0 0 0 0 0 0 0 0 0 0 0 0 0 0 0 0 0 0 0 0 0 0 0 0 0 0 0 0 0 0 0 0 0 0 0 0 0 0 0 0 0 0 0 0 0 0 0 0 0 0 0 0 0 0 0 0 0 0 0 0 0 0 0 0 0 0 0 0 0 0 0 
</DataArray>
<DataArray Name="Stress_23" format="ascii" type="Float64">
0 0 0 0 0 0 0 0 0 0 0 0 0 0 0 0 0 0 0 0 0 0 0 0 0 0 0 0 0 0 0 0 0 0 0 0 0 0 0 0 0 0 0 0 0 0 0 0 0 0 0 0 0 0 0 0 0 0 0 0 0 0 0 0 0 0 0 0 0 0 0 0 0 0 0 0 0 0 0 0 0 0 0 0 0 0 0 0 0 0 0 0 0 0 0 0 0 0 0 0 
</DataArray>
<DataArray Name="Stress_33" format="ascii" type="Float64">
9.42308e+10 9.42308e+10 9.42308e+10 9.42308e+10 9.42308e+10 9.42308e+10 9.42308e+10 9.42308e+10 9.42308e+10 9.42308e+10 9.42308e+10 9.42308e+10 9.42308e+10 9.42308e+10 9.42308e+10 9.42308e+10 9.42308e+10 9.42308e+10 9.42308e+10 9.42308e+10 9.42308e+10 9.42308e+10 9.42308e+10 9.42308e+10 9.42308e+10 9.42308e+10 9.42308e+10 9.42308e+10 9.42308e+10 9.42308e+10 9.42308e+10 9.42308e+10 9.42308e+10 9.42308e+10 9.42308e+10 9.42308e+10 9.42308e+10 9.42308e+10 9.42308e+10 9.42308e+10 9.42308e+10 9.42308e+10 9.42308e+10 9.42308e+10 9.42308e+10 9.42308e+10 9.42308e+10 9.42308e+10 9.42308e+10 9.42308e+10 9.42308e+10 9.42308e+10 9.42308e+10 9.42308e+10 9.42308e+10 9.42308e+10 9.42308e+10 9.42308e+10 9.42308e+10 9.42308e+10 9.42308e+10 9.42308e+10 9.42308e+10 9.42308e+10 9.42308e+10 9.42308e+10 9.42308e+10 9.42308e+10 9.42308e+10 9.42308e+10 9.42308e+10 9.42308e+10 9.42308e+10 9.42308e+10 9.42308e+10 9.42308e+10 9.42308e+10 9.42308e+10 9.42308e+10 9.42308e+10 9.42308e+10 9.42308e+10 9.42308e+10 9.42308e+10 9.42308e+10 9.42308e+10 9.42308e+10 9.42308e+10 9.42308e+10 9.42308e+10 9.42308e+10 9.42308e+10 9.42308e+10 9.42308e+10 9.42308e+10 9.42308e+10 9.42308e+10 9.42308e+10 9.42308e+10 9.42308e+10 
</DataArray>
</CellData>
<Points>
<DataArray NumberOfComponents="3" format="ascii" type="Float64">
0 0 0 0 0.05 0 0 0.01 0 0 0.02 0 0 0.03 0 0 0.04 0 0.05 0.05 0 0.01 0.05 0 0.02 0.05 0 0.03 0.05 0 0.04 0.05 0 0.05 0 0 0.05 0.04 0 0.05 0.03 0 0.05 0.02 0 0.05 0.01 0 0.04 0 0 0.03 0 0 0.02 0 0 0.01 0 0 0.01 0.01 0 0.01 0.02 0 0.01 0.03 0 0.01 0.04 0 0.02 0.01 0 0.02 0.02 0 0.02 0.03 0 0.02 0.04 0 0.03 0.01 0 0.03 0.02 0 0.03 0.03 0 0.03 0.04 0 0.04 0.01 0 0.04 0.02 0 0.04 0.03 0 0.04 0.04 0 0 0.1 0 0 0.06 0 0 0.07 0 0 0.08 0 0 0.09 0 0.05 0.1 0 0.01 0.1 0 0.02 0.1 0 0.03 0.1 0 0.04 0.1 0 0.05 0.09 0 0.05 0.08 0 0.05 0.07 0 0.05 0.06 0 0.01 0.06 0 0.01 0.07 0 0.01 0.08 0 0.01 0.09 0 0.02 0.06 0 0.02 0.07 0 0.02 0.08 0 0.02 0.09 0 0.03 0.06 0 0.03 0.07 0 0.03 0.08 0 0.03 0.09 0 0.04 0.06 0 0.04 0.07 0 0.04 0.08 0 0.04 0.09 0 0.1 0.05 0 0.06 0.05 0 0.07 0.05 0 0.08 0.05 0 0.09 0.05 0 0.1 0 0 0.1 0.04 0 0.1 0.03 0 0.1 0.02 0 0.1 0.01 0 0.09 0 0 0.08 0 0 0.07 0 0 0.06 0 0 0.06 0.01 0 0.06 0.02 0 0.06 0.03 0 0.06 0.04 0 0.07 0.01 0 0.07 0.02 0 0.07 0.03 0 0.07 0.04 0 0.08 0.01 0 0.08 0.02 0 0.08 0.03 0 0.08 0.04 0 0.09 0.01 0 0.09 0.02 0 0.09 0.03 0 0.09 0.04 0 0.1 0.1 0 0.06 0.1 0 0.07 0.1 0 0.08 0.1 0 0.09 0.1 0 0.1 0.09 0 0.1 0.08 0 0.1 0.07 0 0.1 0.06 0 0.06 0.06 0 0.06 0.07 0 0.06 0.08 0 0.06 0.09 0 0.07 0.06 0 0.07 0.07 0 0.07 0.08 0 0.07 0.09 0 0.08 0.06 0 0.08 0.07 0 0.08 0.08 0 0.08 0.09 0 0.09 0.06 0 0.09 0.07 0 0.09 0.08 0 0.09 0.09 0 
</DataArray>
</Points>
<Cells>
<DataArray Name="connectivity" format="ascii" type="Int64">
0 19 20 2 19 18 24 20 18 17 28 24 17 16 32 28 16 11 15 32 2 20 21 3 20 24 25 21 24 28 29 25 28 32 33 29 32 15 14 33 3 21 22 4 21 25 26 22 25 29 30 26 29 33 34 30 33 14 13 34 4 22 23 5 22 26 27 23 26 30 31 27 30 34 35 31 34 13 12 35 5 23 7 1 23 27 8 7 27 31 9 8 31 35 10 9 35 12 6 10 1 7 50 37 7 8 54 50 8 9 58 54 9 10 62 58 10 6 49 62 37 50 51 38 50 54 55 51 54 58 59 55 58 62 63 59 62 49 48 63 38 51 52 39 51 55 56 52 55 59 60 56 59 63 64 60 63 48 47 64 39 52 53 40 52 56 57 53 56 60 61 57 60 64 65 61 64 47 46 65 40 53 42 36 53 57 43 42 57 61 44 43 61 65 45 44 65 46 41 45 11 79 80 15 79 78 84 80 78 77 88 84 77 76 92 88 76 71 75 92 15 80 81 14 80 84 85 81 84 88 89 85 88 92 93 89 92 75 74 93 14 81 82 13 81 85 86 82 85 89 90 86 89 93 94 90 93 74 73 94 13 82 83 12 82 86 87 83 86 90 91 87 90 94 95 91 94 73 72 95 12 83 67 6 83 87 68 67 87 91 69 68 91 95 70 69 95 72 66 70 6 67 105 49 67 68 109 105 68 69 113 109 69 70 117 113 70 66 104 117 49 105 106 48 105 109 110 106 109 113 114 110 113 117 118 114 117 104 103 118 48 106 107 47 106 110 111 107 110 114 115 111 114 118 119 115 118 103 102 119 47 107 108 46 107 111 112 108 111 115 116 112 115 119 120 116 119 102 101 120 46 108 97 41 108 112 98 97 112 116 99 98 116 120 100 99 120 101 96 100 
</DataArray>
<DataArray Name="offsets" format="ascii" type="Int64">
4 8 12 16 20 24 28 32 36 40 44 48 52 56 60 64 68 72 76 80 84 88 92 96 100 104 108 112 116 120 124 128 132 136 140 144 148 152 156 160 164 168 172 176 180 184 188 192 196 200 204 208 212 216 220 224 228 232 236 240 244 248 252 256 260 264 268 272 276 280 284 288 292 296 300 304 308 312 316 320 324 328 332 336 340 344 348 352 356 360 364 368 372 376 380 384 388 392 396 400 
</DataArray>
<DataArray Name="types" format="ascii" type="Int8">
9 9 9 9 9 9 9 9 9 9 9 9 9 9 9 9 9 9 9 9 9 9 9 9 9 9 9 9 9 9 9 9 9 9 9 9 9 9 9 9 9 9 9 9 9 9 9 9 9 9 9 9 9 9 9 9 9 9 9 9 9 9 9 9 9 9 9 9 9 9 9 9 9 9 9 9 9 9 9 9 9 9 9 9 9 9 9 9 9 9 9 9 9 9 9 9 9 9 9 9 
</DataArray>
</Cells>
</Piece>
</UnstructuredGrid>
</VTKFile>
