<?xml version="1.0"?>
<VTKFile byte_order="LittleEndian" type="UnstructuredGrid" version="0.1">
<UnstructuredGrid>
<Piece NumberOfCells="100" NumberOfPoints="121">
<PointData>
<DataArray Name="Warping_X" format="ascii" type="Float64">
-2.24154e-12 6.42239e-10 2.30569e-10 4.10787e-10 5.3939e-10 6.16529e-10 6.93593e-13 4.11349e-10 2.31734e-10 1.03398e-10 2.63731e-11 -6.42265e-10 -2.50484e-11 -1.02269e-10 -2.30941e-10 -4.10986e-10 -6.16652e-10 -5.39819e-10 -4.11801e-10 -2.3261e-10 -2.73466e-13 1.79928e-10 3.08513e-10 3.85641e-10 -1.80043e-10 2.13899e-13 1.2886e-10 2.06018e-10 -3.08363e-10 -1.28212e-10 4.72556e-13 7.76685e-11 -3.85333e-10 -2.0526e-10 -7.65821e-11 6.34165e-13 -2.24154e-12 6.16529e-10 5.3939e-10 4.10787e-10 2.30569e-10 -6.42265e-10 -2.3261e-10 -4.11801e-10 -5.39819e-10 -6.16652e-10 -4.10986e-10 -2.30941e-10 -1.02269e-10 -2.50484e-11 3.85641e-10 3.08513e-10 1.79928e-10 -2.73466e-13 2.06018e-10 1.2886e-10 2.13899e-13 -1.80043e-10 7.76685e-11 4.72556e-13 -1.28212e-10 -3.08363e-10 6.34165e-13 -7.65821e-11 -2.0526e-10 -3.85333e-10 6.42239e-10 2.63731e-11 1.03398e-10 2.31734e-10 4.11349e-10 -2.24154e-12 6.16529e-10 5.3939e-10 4.10787e-10 2.30569e-10 -2.3261e-10 -4.11801e-10 -5.39819e-10 -6.16652e-10 -3.85333e-10 -2.0526e-10 -7.65821e-11 6.34165e-13 -3.08363e-10 -1.28212e-10 4.72556e-13 7.76685e-11 -1.80043e-10 2.13899e-13 1.2886e-10 2.06018e-10 -2.73466e-13 1.79928e-10 3.08513e-10 3.85641e-10 -2.24154e-12 -6.16652e-10 -5.39819e-10 -4.11801e-10 -2.3261e-10 2.30569e-10 4.10787e-10 5.3939e-10 6.16529e-10 6.34165e-13 -7.65821e-11 -2.0526e-10 -3.85333e-10 7.76685e-11 4.72556e-13 -1.28212e-10 -3.08363e-10 2.06018e-10 1.2886e-10 2.13899e-13 -1.80043e-10 3.85641e-10 3.08513e-10 1.79928e-10 -2.73466e-13 
</DataArray>
<DataArray Name="Warping_Y" format="ascii" type="Float64">
1.28814e-09 7.88144e-25 1.02969e-09 7.7194e-10 5.14521e-10 2.57236e-10 -1.319e-26 7.05953e-25 5.76273e-25 3.99338e-25 2.06432e-25 -1.10332e-24 -1.35237e-25 -3.26008e-25 -5.97727e-25 -8.19845e-25 2.56841e-10 5.13758e-10 7.70882e-10 1.02837e-09 8.22954e-10 6.17303e-10 4.11542e-10 2.0577e-10 6.16721e-10 4.62665e-10 3.08507e-10 1.5427e-10 4.10997e-10 3.08289e-10 2.05571e-10 1.02802e-10 2.05459e-10 1.54105e-10 1.02753e-10 5.13846e-11 -1.28814e-09 -2.57236e-10 -5.14521e-10 -7.7194e-10 -1.02969e-09 -3.77049e-25 -1.02837e-09 -7.70882e-10 -5.13758e-10 -2.56841e-10 -1.32711e-25 -1.67241e-26 8.41796e-26 6.77998e-26 -2.0577e-10 -4.11542e-10 -6.17303e-10 -8.22954e-10 -1.5427e-10 -3.08507e-10 -4.62665e-10 -6.16721e-10 -1.02802e-10 -2.05571e-10 -3.08289e-10 -4.10997e-10 -5.13846e-11 -1.02753e-10 -1.54105e-10 -2.05459e-10 5.22126e-25 -8.74441e-26 -1.80001e-25 -1.81189e-25 1.49376e-25 -1.28814e-09 -2.57236e-10 -5.14521e-10 -7.7194e-10 -1.02969e-09 -1.02837e-09 -7.70882e-10 -5.13758e-10 -2.56841e-10 -2.05459e-10 -1.54105e-10 -1.02753e-10 -5.13846e-11 -4.10997e-10 -3.08289e-10 -2.05571e-10 -1.02802e-10 -6.16721e-10 -4.62665e-10 -3.08507e-10 -1.5427e-10 -8.22954e-10 -6.17303e-10 -4.11542e-10 -2.0577e-10 1.28814e-09 2.56841e-10 5.13758e-10 7.70882e-10 1.02837e-09 1.02969e-09 7.7194e-10 5.14521e-10 2.57236e-10 5.13846e-11 1.02753e-10 1.54105e-10 2.05459e-10 1.02802e-10 2.05571e-10 3.08289e-10 4.10997e-10 1.5427e-10 3.08507e-10 4.62665e-10 6.16721e-10 2.0577e-10 4.11542e-10 6.17303e-10 8.22954e-10 
</DataArray>
<DataArray Name="Warping_Z" format="ascii" type="Float64">
0 0 0 0 0 0 0 0 0 0 0 0 0 0 0 0 0 0 0 0 0 0 0 0 0 0 0 0 0 0 0 0 0 0 0 0 0 0 0 0 0 0 0 0 0 0 0 0 0 0 0 0 0 0 0 0 0 0 0 0 0 0 0 0 0 0 0 0 0 0 0 0 0 0 0 0 0 0 0 0 0 0 0 0 0 0 0 0 0 0 0 0 0 0 0 0 0 0 0 0 0 0 0 0 0 0 0 0 0 0 0 0 0 0 0 0 0 0 0 0 0 
</DataArray>
</PointData>
<CellData>
<DataArray Name="MaterialId" format="ascii" type="Float64">
4 4 4 4 4 4 4 4 4 4 4 4 4 4 4 4 4 4 4 4 4 4 4 4 4 4 4 4 4 4 4 4 4 4 4 4 4 4 4 4 4 4 4 4 4 4 4 4 4 4 4 4 4 4 4 4 4 4 4 4 4 4 4 4 4 4 4 4 4 4 4 4 4 4 4 4 4 4 4 4 4 4 4 4 4 4 4 4 4 4 4 4 4 4 4 4 4 4 4 4 
</DataArray>
<DataArray Name="FiberAngle" format="ascii" type="Float64">
0 0 0 0 0 0 0 0 0 0 0 0 0 0 0 0 0 0 0 0 0 0 0 0 0 0 0 0 0 0 0 0 0 0 0 0 0 0 0 0 0 0 0 0 0 0 0 0 0 0 0 0 0 0 0 0 0 0 0 0 0 0 0 0 0 0 0 0 0 0 0 0 0 0 0 0 0 0 0 0 0 0 0 0 0 0 0 0 0 0 0 0 0 0 0 0 0 0 0 0 
</DataArray>
<DataArray Name="Strain_11" format="ascii" type="Float64">
-2.30606e-08 -1.7948e-08 -1.28169e-08 -7.69009e-09 -2.56333e-09 -2.30851e-08 -1.79742e-08 -1.28373e-08 -7.70089e-09 -2.56674e-09 -2.30868e-08 -1.79683e-08 -1.28406e-08 -7.70514e-09 -2.5684e-09 -2.30882e-08 -1.79638e-08 -1.28369e-08 -7.70445e-09 -2.56848e-09 -2.30889e-08 -1.79618e-08 -1.28343e-08 -7.70297e-09 -2.5681e-09 -2.30889e-08 -1.79618e-08 -1.28343e-08 -7.70297e-09 -2.5681e-09 -2.30882e-08 -1.79638e-08 -1.28369e-08 -7.70445e-09 -2.56848e-09 -2.30868e-08 -1.79683e-08 -1.28406e-08 -7.70514e-09 -2.5684e-09 -2.30851e-08 -1.79742e-08 -1.28373e-08 -7.70089e-09 -2.56674e-09 -2.30606e-08 -1.7948e-08 -1.28169e-08 -7.69009e-09 -2.56333e-09 2.56333e-09 7.69009e-09 1.28169e-08 1.7948e-08 2.30606e-08 2.56674e-09 7.70089e-09 1.28373e-08 1.79742e-08 2.30851e-08 2.5684e-09 7.70514e-09 1.28406e-08 1.79683e-08 2.30868e-08 2.56848e-09 7.70445e-09 1.28369e-08 1.79638e-08 2.30882e-08 2.5681e-09 7.70297e-09 1.28343e-08 1.79618e-08 2.30889e-08 2.5681e-09 7.70297e-09 1.28343e-08 1.79618e-08 2.30889e-08 2.56848e-09 7.70445e-09 1.28369e-08 1.79638e-08 2.30882e-08 2.5684e-09 7.70514e-09 1.28406e-08 1.79683e-08 2.30868e-08 2.56674e-09 7.70089e-09 1.28373e-08 1.79742e-08 2.30851e-08 2.56333e-09 7.69009e-09 1.28169e-08 1.7948e-08 2.30606e-08 
</DataArray>
<DataArray Name="Strain_22" format="ascii" type="Float64">
-2.31933e-08 -1.79787e-08 -1.28461e-08 -7.70714e-09 -2.56913e-09 -2.317e-08 -1.79854e-08 -1.28382e-08 -7.70307e-09 -2.56767e-09 -2.3159e-08 -1.7996e-08 -1.28438e-08 -7.70351e-09 -2.5676e-09 -2.31529e-08 -1.80005e-08 -1.28503e-08 -7.70691e-09 -2.56844e-09 -2.31503e-08 -1.8002e-08 -1.28536e-08 -7.70931e-09 -2.56923e-09 -2.31503e-08 -1.8002e-08 -1.28536e-08 -7.70931e-09 -2.56923e-09 -2.31529e-08 -1.80005e-08 -1.28503e-08 -7.70691e-09 -2.56844e-09 -2.3159e-08 -1.7996e-08 -1.28438e-08 -7.70351e-09 -2.5676e-09 -2.317e-08 -1.79854e-08 -1.28382e-08 -7.70307e-09 -2.56767e-09 -2.31933e-08 -1.79787e-08 -1.28461e-08 -7.70714e-09 -2.56913e-09 2.56913e-09 7.70714e-09 1.28461e-08 1.79787e-08 2.31933e-08 2.56767e-09 7.70307e-09 1.28382e-08 1.79854e-08 2.317e-08 2.5676e-09 7.70351e-09 1.28438e-08 1.7996e-08 2.3159e-08 2.56844e-09 7.70691e-09 1.28503e-08 1.80005e-08 2.31529e-08 2.56923e-09 7.70931e-09 1.28536e-08 1.8002e-08 2.31503e-08 2.56923e-09 7.70931e-09 1.28536e-08 1.8002e-08 2.31503e-08 2.56844e-09 7.70691e-09 1.28503e-08 1.80005e-08 2.31529e-08 2.5676e-09 7.70351e-09 1.28438e-08 1.7996e-08 2.3159e-08 2.56767e-09 7.70307e-09 1.28382e-08 1.79854e-08 2.317e-08 2.56913e-09 7.70714e-09 1.28461e-08 1.79787e-08 2.31933e-08 
</DataArray>
<DataArray Name="Strain_12" format="ascii" type="Float64">
-6.79815e-11 1.87607e-11 1.83286e-11 1.60302e-11 1.4862e-11 -4.75744e-11 -2.06779e-11 1.54779e-11 2.50592e-11 2.77152e-11 -2.13233e-11 -2.21778e-11 9.66689e-13 1.80031e-11 2.45314e-11 -8.91918e-12 -1.24439e-11 -2.4573e-12 8.86978e-12 1.49506e-11 -2.43518e-12 -3.82453e-12 -1.12306e-12 2.56411e-12 4.81867e-12 2.43518e-12 3.82453e-12 1.12306e-12 -2.56411e-12 -4.81867e-12 8.91918e-12 1.24439e-11 2.4573e-12 -8.86978e-12 -1.49506e-11 2.13233e-11 2.21778e-11 -9.66689e-13 -1.80031e-11 -2.45314e-11 4.75744e-11 2.06779e-11 -1.54779e-11 -2.50592e-11 -2.77152e-11 6.79815e-11 -1.87607e-11 -1.83286e-11 -1.60302e-11 -1.4862e-11 1.4862e-11 1.60302e-11 1.83286e-11 1.87607e-11 -6.79815e-11 2.77152e-11 2.50592e-11 1.54779e-11 -2.06779e-11 -4.75744e-11 2.45314e-11 1.80031e-11 9.66689e-13 -2.21778e-11 -2.13233e-11 1.49506e-11 8.86978e-12 -2.4573e-12 -1.24439e-11 -8.91918e-12 4.81867e-12 2.56411e-12 -1.12306e-12 -3.82453e-12 -2.43518e-12 -4.81867e-12 -2.56411e-12 1.12306e-12 3.82453e-12 2.43518e-12 -1.49506e-11 -8.86978e-12 2.4573e-12 1.24439e-11 8.91918e-12 -2.45314e-11 -1.80031e-11 -9.66689e-13 2.21778e-11 2.13233e-11 -2.77152e-11 -2.50592e-11 -1.54779e-11 2.06779e-11 4.75744e-11 -1.4862e-11 -1.60302e-11 -1.83286e-11 -1.87607e-11 6.79815e-11 
</DataArray>
<DataArray Name="Strain_13" format="ascii" type="Float64">
0 0 0 0 0 0 0 0 0 0 0 0 0 0 0 0 0 0 0 0 0 0 0 0 0 0 0 0 0 0 0 0 0 0 0 0 0 0 0 0 0 0 0 0 0 0 0 0 0 0 0 0 0 0 0 0 0 0 0 0 0 0 0 0 0 0 0 0 0 0 0 0 0 0 0 0 0 0 0 0 0 0 0 0 0 0 0 0 0 0 0 0 0 0 0 0 0 0 0 0 
</DataArray>
<DataArray Name="Strain_23" format="ascii" type="Float64">
0 0 0 0 0 0 0 0 0 0 0 0 0 0 0 0 0 0 0 0 0 0 0 0 0 0 0 0 0 0 0 0 0 0 0 0 0 0 0 0 0 0 0 0 0 0 0 0 0 0 0 0 0 0 0 0 0 0 0 0 0 0 0 0 0 0 0 0 0 0 0 0 0 0 0 0 0 0 0 0 0 0 0 0 0 0 0 0 0 0 0 0 0 0 0 0 0 0 0 0 
</DataArray>
<DataArray Name="Strain_33" format="ascii" type="Float64">
-0.005 -0.015 -0.025 -0.035 -0.045 -0.005 -0.015 -0.025 -0.035 -0.045 -0.005 -0.015 -0.025 -0.035 -0.045 -0.005 -0.015 -0.025 -0.035 -0.045 -0.005 -0.015 -0.025 -0.035 -0.045 -0.005 -0.015 -0.025 -0.035 -0.045 -0.005 -0.015 -0.025 -0.035 -0.045 -0.005 -0.015 -0.025 -0.035 -0.045 -0.005 -0.015 -0.025 -0.035 -0.045 -0.005 -0.015 -0.025 -0.035 -0.045 -0.055 -0.065 -0.075 -0.085 -0.095 -0.055 -0.065 -0.075 -0.085 -0.095 -0.055 -0.065 -0.075 -0.085 -0.095 -0.055 -0.065 -0.075 -0.085 -0.095 -0.055 -0.065 -0.075 -0.085 -0.095 -0.055 -0.065 -0.075 -0.085 -0.095 -0.055 -0.065 -0.075 -0.085 -0.095 -0.055 -0.065 -0.075 -0.085 -0.095 -0.055 -0.065 -0.075 -0.085 -0.095 -0.055 -0.065 -0.075 -0.085 -0.095 
</DataArray>
<DataArray Name="Stress_11" format="ascii" type="Float64">
-2.01926e+08 -6.05772e+08 -1.00962e+09 -1.41346e+09 -1.81731e+09 -2.01926e+08 -6.05772e+08 -1.00962e+09 -1.41346e+09 -1.81731e+09 -2.01926e+08 -6.05772e+08 -1.00962e+09 -1.41346e+09 -1.81731e+09 -2.01926e+08 -6.05772e+08 -1.00962e+09 -1.41346e+09 -1.81731e+09 -2.01926e+08 -6.05772e+08 -1.00962e+09 -1.41346e+09 -1.81731e+09 -2.01926e+08 -6.05772e+08 -1.00962e+09 -1.41346e+09 -1.81731e+09 -2.01926e+08 -6.05772e+08 -1.00962e+09 -1.41346e+09 -1.81731e+09 -2.01926e+08 -6.05772e+08 -1.00962e+09 -1.41346e+09 -1.81731e+09 -2.01926e+08 -6.05772e+08 -1.00962e+09 -1.41346e+09 -1.81731e+09 -2.01926e+08 -6.05772e+08 -1.00962e+09 -1.41346e+09 -1.81731e+09 -2.22115e+09 -2.625e+09 -3.02884e+09 -3.43269e+09 -3.83654e+09 -2.22115e+09 -2.625e+09 -3.02884e+09 -3.43269e+09 -3.83654e+09 -2.22115e+09 -2.625e+09 -3.02884e+09 -3.43269e+09 -3.83654e+09 -2.22115e+09 -2.625e+09 -3.02884e+09 -3.43269e+09 -3.83654e+09 -2.22115e+09 -2.625e+09 -3.02884e+09 -3.43269e+09 -3.83654e+09 -2.22115e+09 -2.625e+09 -3.02884e+09 -3.43269e+09 -3.83654e+09 -2.22115e+09 -2.625e+09 -3.02884e+09 -3.43269e+09 -3.83654e+09 -2.22115e+09 -2.625e+09 -3.02884e+09 -3.43269e+09 -3.83654e+09 -2.22115e+09 -2.625e+09 -3.02884e+09 -3.43269e+09 -3.83654e+09 -2.22115e+09 -2.625e+09 -3.02884e+09 -3.43269e+09 -3.83654e+09 
</DataArray>
<DataArray Name="Stress_22" format="ascii" type="Float64">
-2.01926e+08 -6.05772e+08 -1.00962e+09 -1.41346e+09 -1.81731e+09 -2.01926e+08 -6.05772e+08 -1.00962e+09 -1.41346e+09 -1.81731e+09 -2.01926e+08 -6.05772e+08 -1.00962e+09 -1.41346e+09 -1.81731e+09 -2.01926e+08 -6.05772e+08 -1.00962e+09 -1.41346e+09 -1.81731e+09 -2.01926e+08 -6.05772e+08 -1.00962e+09 -1.41346e+09 -1.81731e+09 -2.01926e+08 -6.05772e+08 -1.00962e+09 -1.41346e+09 -1.81731e+09 -2.01926e+08 -6.05772e+08 -1.00962e+09 -1.41346e+09 -1.81731e+09 -2.01926e+08 -6.05772e+08 -1.00962e+09 -1.41346e+09 -1.81731e+09 -2.01926e+08 -6.05772e+08 -1.00962e+09 -1.41346e+09 -1.81731e+09 -2.01926e+08 -6.05772e+08 -1.00962e+09 -1.41346e+09 -1.81731e+09 -2.22115e+09 -2.625e+09 -3.02884e+09 -3.43269e+09 -3.83654e+09 -2.22115e+09 -2.625e+09 -3.02884e+09 -3.43269e+09 -3.83654e+09 -2.22115e+09 -2.625e+09 -3.02884e+09 -3.43269e+09 -3.83654e+09 -2.22115e+09 -2.625e+09 -3.02884e+09 -3.43269e+09 -3.83654e+09 -2.22115e+09 -2.625e+09 -3.02884e+09 -3.43269e+09 -3.83654e+09 -2.22115e+09 -2.625e+09 -3.02884e+09 -3.43269e+09 -3.83654e+09 -2.22115e+09 -2.625e+09 -3.02884e+09 -3.43269e+09 -3.83654e+09 -2.22115e+09 -2.625e+09 -3.02884e+09 -3.43269e+09 -3.83654e+09 -2.22115e+09 -2.625e+09 -3.02884e+09 -3.43269e+09 -3.83654e+09 -2.22115e+09 -2.625e+09 -3.02884e+09 -3.43269e+09 -3.83654e+09 
</DataArray>
<DataArray Name="Stress_12" format="ascii" type="Float64">
-1.83026 0.505094 0.49346 0.431581 0.40013 -1.28085 -0.556712 0.416712 0.67467 0.746176 -0.574088 -0.597094 0.0260262 0.484697 0.660458 -0.240131 -0.335028 -0.0661579 0.238801 0.402516 -0.0655623 -0.102968 -0.0302362 0.0690334 0.129733 0.0655623 0.102968 0.0302362 -0.0690334 -0.129733 0.240131 0.335028 0.0661579 -0.238801 -0.402516 0.574088 0.597094 -0.0260262 -0.484697 -0.660458 1.28085 0.556712 -0.416712 -0.67467 -0.746176 1.83026 -0.505094 -0.49346 -0.431581 -0.40013 0.40013 0.431581 0.49346 0.505094 -1.83026 0.746176 0.67467 0.416712 -0.556712 -1.28085 0.660458 0.484697 0.0260262 -0.597094 -0.574088 0.402516 0.238801 -0.0661579 -0.335028 -0.240131 0.129733 0.0690334 -0.0302362 -0.102968 -0.0655623 -0.129733 -0.0690334 0.0302362 0.102968 0.0655623 -0.402516 -0.238801 0.0661579 0.335028 0.240131 -0.660458 -0.484697 -0.0260262 0.597094 0.574088 -0.746176 -0.67467 -0.416712 0.556712 1.28085 -0.40013 -0.431581 -0.49346 -0.505094 1.83026 
</DataArray>
<DataArray Name="Stress_13" format="ascii" type="Float64">
0 0 0 0 0 0 0 0 0 0 0 0 0 0 0 0 0 0 0 0 0 0 0 0 0 0 0 0 0 0 0 0 0 0 0 0 0 0 0 0 0 0 0 0 0 0 0 0 0 0 0 0 0 0 0 0 0 0 0 0 0 0 0 0 0 0 0 0 0 0 0 0 0 0 0 0 0 0 0 0 0 0 0 0 0 0 0 0 0 0 0 0 0 0 0 0 0 0 0 0 
</DataArray>
<DataArray Name="Stress_23" format="ascii" type="Float64">
0 0 0 0 0 0 0 0 0 0 0 0 0 0 0 0 0 0 0 0 0 0 0 0 0 0 0 0 0 0 0 0 0 0 0 0 0 0 0 0 0 0 0 0 0 0 0 0 0 0 0 0 0 0 0 0 0 0 0 0 0 0 0 0 0 0 0 0 0 0 0 0 0 0 0 0 0 0 0 0 0 0 0 0 0 0 0 0 0 0 0 0 0 0 0 0 0 0 0 0 
</DataArray>
<DataArray Name="Stress_33" format="ascii" type="Float64">
-4.71156e+08 -1.41346e+09 -2.35577e+09 -3.29808e+09 -4.24038e+09 -4.71156e+08 -1.41346e+09 -2.35577e+09 -3.29808e+09 -4.24038e+09 -4.71156e+08 -1.41346e+09 -2.35577e+09 -3.29808e+09 -4.24038e+09 -4.71156e+08 -1.41346e+09 -2.35577e+09 -3.29808e+09 -4.24038e+09 -4.71156e+08 -1.41346e+09 -2.35577e+09 -3.29808e+09 -4.24038e+09 -4.71156e+08 -1.41346e+09 -2.35577e+09 -3.29808e+09 -4.24038e+09 -4.71156e+08 -1.41346e+09 -2.35577e+09 -3.29808e+09 -4.24038e+09 -4.71156e+08 -1.41346e+09 -2.35577e+09 -3.29808e+09 -4.24038e+09 -4.71156e+08 -1.41346e+09 -2.35577e+09 -3.29808e+09 -4.24038e+09 -4.71156e+08 -1.41346e+09 -2.35577e+09 -3.29808e+09 -4.24038e+09 -5.18269e+09 -6.125e+09 -7.06731e+09 -8.00961e+09 -8.95192e+09 -5.18269e+09 -6.125e+09 -7.06731e+09 -8.00961e+09 -8.95192e+09 -5.18269e+09 -6.125e+09 -7.06731e+09 -8.00961e+09 -8.95192e+09 -5.18269e+09 -6.125e+09 -7.06731e+09 -8.00961e+09 -8.95192e+09 -5.18269e+09 -6.125e+09 -7.06731e+09 -8.00961e+09 -8.95192e+09 -5.18269e+09 -6.125e+09 -7.06731e+09 -8.00961e+09 -8.95192e+09 -5.18269e+09 -6.125e+09 -7.06731e+09 -8.00961e+09 -8.95192e+09 -5.18269e+09 -6.125e+09 -7.06731e+09 -8.00961e+09 -8.95192e+09 -5.18269e+09 -6.125e+09 -7.06731e+09 -8.00961e+09 -8.95192e+09 -5.18269e+09 -6.125e+09 -7.06731e+09 -8.00961e+09 -8.95192e+09 
</DataArray>
</CellData>
<Points>
<DataArray NumberOfComponents="3" format="ascii" type="Float64">
0 0 0 0 0.05 0 0 0.01 0 0 0.02 0 0 0.03 0 0 0.04 0 0.05 0.05 0 0.01 0.05 0 0.02 0.05 0 0.03 0.05 0 0.04 0.05 0 0.05 0 0 0.05 0.04 0 0.05 0.03 0 0.05 0.02 0 0.05 0.01 0 0.04 0 0 0.03 0 0 0.02 0 0 0.01 0 0 0.01 0.01 0 0.01 0.02 0 0.01 0.03 0 0.01 0.04 0 0.02 0.01 0 0.02 0.02 0 0.02 0.03 0 0.02 0.04 0 0.03 0.01 0 0.03 0.02 0 0.03 0.03 0 0.03 0.04 0 0.04 0.01 0 0.04 0.02 0 0.04 0.03 0 0.04 0.04 0 0 0.1 0 0 0.06 0 0 0.07 0 0 0.08 0 0 0.09 0 0.05 0.1 0 0.01 0.1 0 0.02 0.1 0 0.03 0.1 0 0.04 0.1 0 0.05 0.09 0 0.05 0.08 0 0.05 0.07 0 0.05 0.06 0 0.01 0.06 0 0.01 0.07 0 0.01 0.08 0 0.01 0.09 0 0.02 0.06 0 0.02 0.07 0 0.02 0.08 0 0.02 0.09 0 0.03 0.06 0 0.03 0.07 0 0.03 0.08 0 0.03 0.09 0 0.04 0.06 0 0.04 0.07 0 0.04 0.08 0 0.04 0.09 0 0.1 0.05 0 0.06 0.05 0 0.07 0.05 0 0.08 0.05 0 0.09 0.05 0 0.1 0 0 0.1 0.04 0 0.1 0.03 0 0.1 0.02 0 0.1 0.01 0 0.09 0 0 0.08 0 0 0.07 0 0 0.06 0 0 0.06 0.01 0 0.06 0.02 0 0.06 0.03 0 0.06 0.04 0 0.07 0.01 0 0.07 0.02 0 0.07 0.03 0 0.07 0.04 0 0.08 0.01 0 0.08 0.02 0 0.08 0.03 0 0.08 0.04 0 0.09 0.01 0 0.09 0.02 0 0.09 0.03 0 0.09 0.04 0 0.1 0.1 0 0.06 0.1 0 0.07 0.1 0 0.08 0.1 0 0.09 0.1 0 0.1 0.09 0 0.1 0.08 0 0.1 0.07 0 0.1 0.06 0 0.06 0.06 0 0.06 0.07 0 0.06 0.08 0 0.06 0.09 0 0.07 0.06 0 0.07 0.07 0 0.07 0.08 0 0.07 0.09 0 0.08 0.06 0 0.08 0.07 0 0.08 0.08 0 0.08 0.09 0 0.09 0.06 0 0.09 0.07 0 0.09 0.08 0 0.09 0.09 0 
</DataArray>
</Points>
<Cells>
<DataArray Name="connectivity" format="ascii" type="Int64">
0 19 20 2 19 18 24 20 18 17 28 24 17 16 32 28 16 11 15 32 2 20 21 3 20 24 25 21 24 28 29 25 28 32 33 29 32 15 14 33 3 21 22 4 21 25 26 22 25 29 30 26 29 33 34 30 33 14 13 34 4 22 23 5 22 26 27 23 26 30 31 27 30 34 35 31 34 13 12 35 5 23 7 1 23 27 8 7 27 31 9 8 31 35 10 9 35 12 6 10 1 7 50 37 7 8 54 50 8 9 58 54 9 10 62 58 10 6 49 62 37 50 51 38 50 54 55 51 54 58 59 55 58 62 63 59 62 49 48 63 38 51 52 39 51 55 56 52 55 59 60 56 59 63 64 60 63 48 47 64 39 52 53 40 52 56 57 53 56 60 61 57 60 64 65 61 64 47 46 65 40 53 42 36 53 57 43 42 57 61 44 43 61 65 45 44 65 46 41 45 11 79 80 15 79 78 84 80 78 77 88 84 77 76 92 88 76 71 75 92 15 80 81 14 80 84 85 81 84 88 89 85 88 92 93 89 92 75 74 93 14 81 82 13 81 85 86 82 85 89 90 86 89 93 94 90 93 74 73 94 13 82 83 12 82 86 87 83 86 90 91 87 90 94 95 91 94 73 72 95 12 83 67 6 83 87 68 67 87 91 69 68 91 95 70 69 95 72 66 70 6 67 105 49 67 68 109 105 68 69 113 109 69 70 117 113 70 66 104 117 49 105 106 48 105 109 110 106 109 113 114 110 113 117 118 114 117 104 103 118 48 106 107 47 106 110 111 107 110 114 115 111 114 118 119 115 118 103 102 119 47 107 108 46 107 111 112 108 111 115 116 112 115 119 120 116 119 102 101 120 46 108 97 41 108 112 98 97 112 116 99 98 116 120 100 99 120 101 96 100 
</DataArray>
<DataArray Name="offsets" format="ascii" type="Int64">
4 8 12 16 20 24 28 32 36 40 44 48 52 56 60 64 68 72 76 80 84 88 92 96 100 104 108 112 116 120 124 128 132 136 140 144 148 152 156 160 164 168 172 176 180 184 188 192 196 200 204 208 212 216 220 224 228 232 236 240 244 248 252 256 260 264 268 272 276 280 284 288 292 296 300 304 308 312 316 320 324 328 332 336 340 344 348 352 356 360 364 368 372 376 380 384 388 392 396 400 
</DataArray>
<DataArray Name="types" format="ascii" type="Int8">
9 9 9 9 9 9 9 9 9 9 9 9 9 9 9 9 9 9 9 9 9 9 9 9 9 9 9 9 9 9 9 9 9 9 9 9 9 9 9 9 9 9 9 9 9 9 9 9 9 9 9 9 9 9 9 9 9 9 9 9 9 9 9 9 9 9 9 9 9 9 9 9 9 9 9 9 9 9 9 9 9 9 9 9 9 9 9 9 9 9 9 9 9 9 9 9 9 9 9 9 
</DataArray>
</Cells>
</Piece>
</UnstructuredGrid>
</VTKFile>
