<?xml version="1.0"?>
<VTKFile byte_order="LittleEndian" type="UnstructuredGrid" version="0.1">
<UnstructuredGrid>
<Piece NumberOfCells="232" NumberOfPoints="342">
<PointData>
<DataArray Name="Warping_X" format="ascii" type="Float64">
-0.0669386 -0.0672791 -0.0671529 -0.0675836 -0.067411 -0.0671796 -0.0674107 -0.0670571 -0.0672965 -0.0671796 -0.0675836 -0.0674107 -0.0672791 -0.067411 -0.0669386 -0.0671529 -0.0670571 -0.0672965 -0.0438917 -0.041986 -0.0429532 -0.0429246 -0.0423357 -0.0432951 -0.0431262 -0.0437041 -0.0430483 -0.0432951 -0.0429246 -0.0431262 -0.041986 -0.0423357 -0.0438917 -0.0429532 -0.0437041 -0.0430483 0.0147927 0.0173275 0.0160611 0.0165932 0.0170506 0.0159337 0.0162574 0.0152107 0.0161489 0.0159337 0.0165932 0.0162574 0.0173275 0.0170506 0.0147927 0.0160611 0.0152107 0.0161489 0.0993483 0.098935 0.0991789 0.0992441 0.0990908 0.099677 0.0994952 0.0995021 0.0993574 0.099677 0.0992441 0.0994952 0.098935 0.0990908 0.0993483 0.0991789 0.0995021 0.0993574 -0.067437 -0.0676138 -0.0677462 -0.0678242 -0.0678505 -0.0678242 -0.0677462 -0.0676138 -0.067437 -0.0678417 -0.0680189 -0.0681511 -0.0682291 -0.0682554 -0.0682291 -0.0681511 -0.0680189 -0.0678417 -0.0676321 -0.0678186 -0.0679485 -0.0680271 -0.0680532 -0.0680271 -0.0679485 -0.0678186 -0.0676321 -0.0431727 -0.0434194 -0.0435189 -0.0435939 -0.0436166 -0.0435939 -0.0435189 -0.0434194 -0.0431727 -0.0434976 -0.0435752 -0.0437139 -0.0437803 -0.043805 -0.0437803 -0.0437139 -0.0435752 -0.0434976 -0.0433312 -0.0434987 -0.0436164 -0.0436875 -0.0437111 -0.0436875 -0.0436164 -0.0434987 -0.0433312 0.0167979 0.016982 0.0172228 0.0173455 0.0173897 0.0173455 0.0172228 0.016982 0.0167979 0.0164878 0.0169066 0.0170933 0.0172279 0.0172693 0.0172279 0.0170933 0.0169066 0.0164878 0.016645 0.0169444 0.0171587 0.0172872 0.01733 0.0172872 0.0171587 0.0169444 0.016645 0.100019 0.100252 0.100427 0.10053 0.100564 0.10053 0.100427 0.100252 0.100019 0.0995763 0.0998111 0.0999853 0.100088 0.100123 0.100088 0.0999853 0.0998111 0.0995763 0.0997893 0.100035 0.100206 0.100309 0.100344 0.100309 0.100206 0.100035 0.0997893 -0.066859 -0.065862 -0.06443 -0.0625702 -0.0603098 -0.0576735 -0.0546873 -0.0513724 -0.0477615 -0.066935 -0.0659402 -0.0644594 -0.0625522 -0.0602361 -0.0575369 -0.0544817 -0.051084 -0.0474178 -0.0669064 -0.0658996 -0.0644466 -0.0625621 -0.0602739 -0.0576065 -0.0545835 -0.0512366 -0.0475607 -0.066935 -0.0659402 -0.0644594 -0.0625522 -0.0602361 -0.0575369 -0.0544817 -0.051084 -0.0474178 -0.066859 -0.065862 -0.06443 -0.0625702 -0.0603098 -0.0576735 -0.0546873 -0.0513724 -0.0477615 -0.0669064 -0.0658996 -0.0644466 -0.0625621 -0.0602739 -0.0576065 -0.0545835 -0.0512366 -0.0475607 -0.0370566 -0.0318264 -0.0264043 -0.0208127 -0.0150759 -0.00922119 -0.0032762 0.00273643 0.00878743 -0.0375958 -0.0322863 -0.0267143 -0.0209757 -0.0150815 -0.00906086 -0.00294373 0.00326099 0.00944937 -0.0373602 -0.032048 -0.026562 -0.020894 -0.015079 -0.00914188 -0.00310745 0.00298782 0.00915985 -0.0375958 -0.0322863 -0.0267143 -0.0209757 -0.0150815 -0.00906086 -0.00294373 0.00326099 0.00944937 -0.0370566 -0.0318264 -0.0264043 -0.0208127 -0.0150759 -0.00922119 -0.0032762 0.00273643 0.00878743 -0.0373602 -0.032048 -0.026562 -0.020894 -0.015079 -0.00914188 -0.00310745 0.00298782 0.00915985 0.0294959 0.0413805 0.0527453 0.0633716 0.0730414 0.0815352 0.0886349 0.0941186 0.0977793 0.0290317 0.0410273 0.0525242 0.0632596 0.0730263 0.0816027 0.0887692 0.0943124 0.0979905 0.0292393 0.0412109 0.0526334 0.0633166 0.0730345 0.0815698 0.0887032 0.0942158 0.0978893 0.0290317 0.0410273 0.0525242 0.0632596 0.0730263 0.0816027 0.0887692 0.0943124 0.0979905 0.0294959 0.0413805 0.0527453 0.0633716 0.0730414 0.0815352 0.0886349 0.0941186 0.0977793 0.0292393 0.0412109 0.0526334 0.0633166 0.0730345 0.0815698 0.0887032 0.0942158 0.0978893 
</DataArray>
<DataArray Name="Warping_Y" format="ascii" type="Float64">
0.00500251 0.00528773 0.00512096 0.00471874 0.00500622 0.00460384 0.0046669 0.00479897 0.00489252 -0.00460384 -0.00471874 -0.0046669 -0.00528773 -0.00500622 -0.00500251 -0.00512096 -0.00479897 -0.00489252 0.00296481 0.00315823 0.00287279 0.00234383 0.00274943 0.00224037 0.00222531 0.00259785 0.00247391 -0.00224037 -0.00234383 -0.00222531 -0.00315823 -0.00274943 -0.00296481 -0.00287279 -0.00259785 -0.00247391 0.00248346 0.00231498 0.0021493 0.00144097 0.00187408 0.00162468 0.00145202 0.0020508 0.00171213 -0.00162468 -0.00144097 -0.00145202 -0.00231498 -0.00187408 -0.00248346 -0.0021493 -0.0020508 -0.00171213 0.00580552 0.00543377 0.00558642 0.00500855 0.00521447 0.00516072 0.00509428 0.00548393 0.00534351 -0.00516072 -0.00500855 -0.00509428 -0.00543377 -0.00521447 -0.00580552 -0.00558642 -0.00548393 -0.00534351 0.00368658 0.00276388 0.00184287 0.000921372 -4.50418e-14 -0.000921372 -0.00184287 -0.00276388 -0.00368658 0.00377689 0.00283231 0.00188826 0.000944127 -3.89236e-14 -0.000944127 -0.00188826 -0.00283231 -0.00377689 0.00373033 0.00279843 0.00186549 0.000932765 -4.19824e-14 -0.000932765 -0.00186549 -0.00279843 -0.00373033 0.00166792 0.00126835 0.000844473 0.000421895 1.68854e-14 -0.000421895 -0.000844473 -0.00126835 -0.00166792 0.00174982 0.00133015 0.000885551 0.000442466 2.3062e-14 -0.000442466 -0.000885551 -0.00133015 -0.00174982 0.00170154 0.00130676 0.000861879 0.000433151 1.9973e-14 -0.000433151 -0.000861879 -0.00130676 -0.00170154 0.00113319 0.000872552 0.000580525 0.000289724 6.11155e-14 -0.000289724 -0.000580525 -0.000872552 -0.00113319 0.000983538 0.000760966 0.00050598 0.000252483 6.76793e-14 -0.000252483 -0.00050598 -0.000760966 -0.000983538 0.00104514 0.000827926 0.000538732 0.000272487 6.43969e-14 -0.000272487 -0.000538732 -0.000827926 -0.00104514 0.00413066 0.00309741 0.00206508 0.00103251 -1.0444e-13 -0.00103251 -0.00206508 -0.00309741 -0.00413066 0.00401172 0.00300719 0.00200525 0.00100252 -9.76427e-14 -0.00100252 -0.00200525 -0.00300719 -0.00401172 0.00406848 0.00305302 0.00203498 0.00101756 -1.0104e-13 -0.00101756 -0.00203498 -0.00305302 -0.00406848 -0.0056924 -0.00589907 -0.00603567 -0.00606214 -0.00596582 -0.00573019 -0.00533757 -0.00477068 -0.00402627 -0.00508346 -0.00527064 -0.00538517 -0.00539115 -0.00527582 -0.00502181 -0.00461341 -0.00402936 -0.00326787 -0.00539 -0.00558447 -0.00571133 -0.00572722 -0.00562166 -0.00537675 -0.00497688 -0.00439984 -0.00365173 0.00508346 0.00527064 0.00538517 0.00539115 0.00527582 0.00502181 0.00461341 0.00402936 0.00326787 0.0056924 0.00589907 0.00603567 0.00606214 0.00596582 0.00573019 0.00533757 0.00477068 0.00402627 0.00539 0.00558447 0.00571133 0.00572722 0.00562166 0.00537675 0.00497688 0.00439984 0.00365173 -0.00486592 -0.00609233 -0.00701799 -0.0075938 -0.00780148 -0.00762169 -0.00703322 -0.00601472 -0.00457428 -0.0039937 -0.00521251 -0.00613086 -0.00669781 -0.00689958 -0.00671392 -0.00612286 -0.00509947 -0.00365407 -0.00443552 -0.00565254 -0.00657689 -0.00714764 -0.00735276 -0.00716985 -0.00658102 -0.00555768 -0.00412156 0.0039937 0.00521251 0.00613086 0.00669781 0.00689958 0.00671392 0.00612286 0.00509947 0.00365407 0.00486592 0.00609233 0.00701799 0.0075938 0.00780148 0.00762169 0.00703322 0.00601472 0.00457428 0.00443552 0.00565254 0.00657689 0.00714764 0.00735276 0.00716985 0.00658102 0.00555768 0.00412156 -0.00511526 -0.00711186 -0.00848342 -0.00927632 -0.00956451 -0.00941608 -0.00890065 -0.00808417 -0.0070473 -0.00420404 -0.00621772 -0.00760347 -0.00841664 -0.0087304 -0.00861253 -0.00813331 -0.00735664 -0.00637105 -0.00466263 -0.00666493 -0.00804444 -0.00884707 -0.00914806 -0.00901473 -0.00851746 -0.00772045 -0.00670974 0.00420404 0.00621772 0.00760347 0.00841664 0.0087304 0.00861253 0.00813331 0.00735664 0.00637105 0.00511526 0.00711186 0.00848342 0.00927632 0.00956451 0.00941608 0.00890065 0.00808417 0.0070473 0.00466263 0.00666493 0.00804444 0.00884707 0.00914806 0.00901473 0.00851746 0.00772045 0.00670974 
</DataArray>
<DataArray Name="Warping_Z" format="ascii" type="Float64">
0 0 0 0 0 0 0 0 0 0 0 0 0 0 0 0 0 0 0 0 0 0 0 0 0 0 0 0 0 0 0 0 0 0 0 0 0 0 0 0 0 0 0 0 0 0 0 0 0 0 0 0 0 0 0 0 0 0 0 0 0 0 0 0 0 0 0 0 0 0 0 0 0 0 0 0 0 0 0 0 0 0 0 0 0 0 0 0 0 0 0 0 0 0 0 0 0 0 0 0 0 0 0 0 0 0 0 0 0 0 0 0 0 0 0 0 0 0 0 0 0 0 0 0 0 0 0 0 0 0 0 0 0 0 0 0 0 0 0 0 0 0 0 0 0 0 0 0 0 0 0 0 0 0 0 0 0 0 0 0 0 0 0 0 0 0 0 0 0 0 0 0 0 0 0 0 0 0 0 0 0 0 0 0 0 0 0 0 0 0 0 0 0 0 0 0 0 0 0 0 0 0 0 0 0 0 0 0 0 0 0 0 0 0 0 0 0 0 0 0 0 0 0 0 0 0 0 0 0 0 0 0 0 0 0 0 0 0 0 0 0 0 0 0 0 0 0 0 0 0 0 0 0 0 0 0 0 0 0 0 0 0 0 0 0 0 0 0 0 0 0 0 0 0 0 0 0 0 0 0 0 0 0 0 0 0 0 0 0 0 0 0 0 0 0 0 0 0 0 0 0 0 0 0 0 0 0 0 0 0 0 0 0 0 0 0 0 0 0 0 0 0 0 0 0 0 0 0 0 0 0 0 0 0 0 0 0 0 0 0 0 0 
</DataArray>
</PointData>
<CellData>
<DataArray Name="MaterialId" format="ascii" type="Float64">
3 3 3 3 3 3 3 3 3 3 3 3 3 3 3 3 3 3 3 3 3 3 3 3 3 3 3 3 3 3 3 3 1 1 1 1 1 1 1 1 1 1 1 1 1 1 1 1 1 1 1 1 1 1 1 1 1 1 1 1 1 1 1 1 1 1 1 1 1 1 1 1 1 1 1 1 1 1 1 1 1 1 1 1 1 1 1 1 1 1 1 1 1 1 1 1 1 1 1 1 1 1 1 1 1 1 1 1 1 1 1 1 3 3 3 3 3 3 3 3 3 3 3 3 3 3 3 3 3 3 3 3 3 3 3 3 3 3 3 3 3 3 3 3 3 3 3 3 3 3 3 3 3 3 3 3 3 3 3 3 3 3 3 3 3 3 3 3 3 3 3 3 3 3 3 3 3 3 3 3 3 3 3 3 3 3 3 3 3 3 3 3 3 3 3 3 3 3 3 3 3 3 3 3 3 3 3 3 3 3 3 3 3 3 3 3 3 3 3 3 3 3 3 3 3 3 3 3 3 3 3 3 
</DataArray>
<DataArray Name="FiberAngle" format="ascii" type="Float64">
-45 -45 -45 -45 -45 -45 -45 -45 -45 -45 -45 -45 -45 -45 -45 -45 -45 -45 -45 -45 -45 -45 -45 -45 -45 -45 -45 -45 -45 -45 -45 -45 0 0 0 0 0 0 0 0 0 0 0 0 0 0 0 0 0 0 0 0 0 0 0 0 0 0 0 0 0 0 0 0 0 0 0 0 0 0 0 0 0 0 0 0 0 0 0 0 0 0 0 0 0 0 0 0 0 0 0 0 0 0 0 0 0 0 0 0 0 0 0 0 0 0 0 0 0 0 0 0 -45 -45 -45 -45 -45 -45 -45 -45 -45 -45 -45 -45 -45 -45 -45 -45 -45 -45 -45 -45 -45 -45 -45 -45 -45 -45 -45 -45 -45 -45 -45 -45 -45 -45 -45 -45 -45 -45 -45 -45 -45 -45 -45 -45 -45 -45 -45 -45 -45 -45 -45 -45 -45 -45 -45 -45 -45 -45 -45 -45 -45 -45 -45 -45 -45 -45 -45 -45 -45 -45 -45 -45 -45 -45 -45 -45 -45 -45 -45 -45 -45 -45 -45 -45 -45 -45 -45 -45 -45 -45 -45 -45 -45 -45 -45 -45 -45 -45 -45 -45 -45 -45 -45 -45 -45 -45 -45 -45 -45 -45 -45 -45 -45 -45 -45 -45 -45 -45 -45 -45 
</DataArray>
<DataArray Name="Strain_11" format="ascii" type="Float64">
-0.0453733 -0.0240775 -0.0470504 -0.0287503 -0.0470504 -0.0287503 -0.0453733 -0.0240775 0.159438 0.167982 0.0824688 0.0914219 0.0824688 0.0914219 0.159438 0.167982 0.220652 0.216819 0.126177 0.123755 0.126177 0.123755 0.220652 0.216819 -0.0314183 -0.0510477 -0.0326534 -0.0517614 -0.0326534 -0.0517614 -0.0314183 -0.0510477 -0.0382542 -0.0409859 -0.0402893 -0.0404666 -0.040424 -0.040424 -0.0404666 -0.0402893 -0.0409859 -0.0382542 -0.0426252 -0.0399968 -0.0407037 -0.0405153 -0.0405622 -0.0405622 -0.0405153 -0.0407037 -0.0399968 -0.0426252 0.00352071 -0.0242913 -0.0174014 -0.0190308 -0.0186778 -0.0186778 -0.0190308 -0.0174014 -0.0242913 0.00352071 0.00103225 -0.0237804 -0.0176759 -0.0191007 -0.0187978 -0.0187978 -0.0191007 -0.0176759 -0.0237804 0.00103225 0.0178536 -0.0194999 -0.0103076 -0.0124625 -0.0120006 -0.0120006 -0.0124625 -0.0103076 -0.0194999 0.0178536 0.0170815 -0.0190442 -0.0101709 -0.0122433 -0.0118015 -0.0118015 -0.0122433 -0.0101709 -0.0190442 0.0170815 -0.0463953 -0.043633 -0.0443958 -0.0441872 -0.0442403 -0.0442403 -0.0441872 -0.0443958 -0.043633 -0.0463953 -0.0411786 -0.0447932 -0.0438871 -0.0441132 -0.0440599 -0.0440599 -0.0441132 -0.0438871 -0.0447932 -0.0411786 0.0245381 0.0425877 0.0624224 0.0806736 0.0979637 0.114183 0.129324 0.1435 0.156213 0.169775 0.0196741 0.0426349 0.0613843 0.0796657 0.0967767 0.112846 0.127856 0.141738 0.155039 0.164391 0.0196741 0.0426349 0.0613843 0.0796657 0.0967767 0.112846 0.127856 0.141738 0.155039 0.164391 0.0245381 0.0425877 0.0624224 0.0806736 0.0979637 0.114183 0.129324 0.1435 0.156213 0.169775 0.214674 0.221282 0.230377 0.237637 0.243944 0.249118 0.253158 0.25625 0.257509 0.261151 0.206351 0.219632 0.227253 0.234575 0.240663 0.245662 0.249571 0.252248 0.254647 0.251169 0.206351 0.219632 0.227253 0.234575 0.240663 0.245662 0.249571 0.252248 0.254647 0.251169 0.214674 0.221282 0.230377 0.237637 0.243944 0.249118 0.253158 0.25625 0.257509 0.261151 0.253889 0.247084 0.236282 0.220811 0.200872 0.176409 0.147422 0.113977 0.0757906 0.0340127 0.251104 0.24594 0.23492 0.219686 0.199873 0.175558 0.146733 0.113363 0.0756113 0.0328017 0.251104 0.24594 0.23492 0.219686 0.199873 0.175558 0.146733 0.113363 0.0756113 0.0328017 0.253889 0.247084 0.236282 0.220811 0.200872 0.176409 0.147422 0.113977 0.0757906 0.0340127 
</DataArray>
<DataArray Name="Strain_22" format="ascii" type="Float64">
-0.0431972 -0.0509942 -0.0420742 -0.0513099 -0.0420742 -0.0513099 -0.0431972 -0.0509942 -0.076584 -0.0807694 -0.0606077 -0.0654192 -0.0606077 -0.0654192 -0.076584 -0.0807694 -0.0869828 -0.0878067 -0.0686233 -0.0693227 -0.0686233 -0.0693227 -0.0869828 -0.0878067 -0.056451 -0.0462211 -0.0572429 -0.0455144 -0.0572429 -0.0455144 -0.056451 -0.0462211 -0.0408351 -0.0407931 -0.0408042 -0.0408013 -0.040802 -0.040802 -0.0408013 -0.0408042 -0.0407931 -0.0408351 -0.0403009 -0.0403172 -0.0403034 -0.0403091 -0.0403073 -0.0403073 -0.0403091 -0.0403034 -0.0403172 -0.0403009 -0.0242994 -0.0177054 -0.0193366 -0.0189525 -0.0190351 -0.0190351 -0.0189525 -0.0193366 -0.0177054 -0.0242994 -0.0238308 -0.0172686 -0.018886 -0.0185067 -0.0185879 -0.0185879 -0.0185067 -0.018886 -0.0172686 -0.0238308 -0.0187891 -0.00956065 -0.01183 -0.0112987 -0.0114124 -0.0114124 -0.0112987 -0.01183 -0.00956065 -0.0187891 -0.0195295 -0.0103882 -0.0126353 -0.0121097 -0.012222 -0.012222 -0.0121097 -0.0126353 -0.0103882 -0.0195295 -0.0439702 -0.0439128 -0.0439127 -0.0439164 -0.0439147 -0.0439147 -0.0439164 -0.0439127 -0.0439128 -0.0439702 -0.0446928 -0.0445372 -0.0445731 -0.0445651 -0.0445668 -0.0445668 -0.0445651 -0.0445731 -0.0445372 -0.0446928 -0.0594026 -0.0620369 -0.0639984 -0.066223 -0.0681917 -0.0700793 -0.0718408 -0.0733943 -0.0754343 -0.0741347 -0.0583902 -0.0616995 -0.0638944 -0.065926 -0.0679078 -0.0697595 -0.0714128 -0.0731531 -0.074537 -0.0741485 -0.0583902 -0.0616995 -0.0638944 -0.065926 -0.0679078 -0.0697595 -0.0714128 -0.0731531 -0.074537 -0.0741485 -0.0594026 -0.0620369 -0.0639984 -0.066223 -0.0681917 -0.0700793 -0.0718408 -0.0733943 -0.0754343 -0.0741347 -0.0847418 -0.0881839 -0.0886053 -0.089586 -0.0903014 -0.0909119 -0.0914086 -0.0916356 -0.09257 -0.0893614 -0.0839206 -0.0870194 -0.0880894 -0.0887254 -0.089487 -0.090055 -0.0904037 -0.0909243 -0.0909758 -0.0885378 -0.0839206 -0.0870194 -0.0880894 -0.0887254 -0.089487 -0.090055 -0.0904037 -0.0909243 -0.0909758 -0.0885378 -0.0847418 -0.0881839 -0.0886053 -0.089586 -0.0903014 -0.0909119 -0.0914086 -0.0916356 -0.09257 -0.0893614 -0.0891705 -0.0905798 -0.088817 -0.0871393 -0.0848086 -0.0819862 -0.0786356 -0.0747959 -0.0702503 -0.0661899 -0.0893534 -0.089957 -0.0885915 -0.0868238 -0.0845714 -0.0817798 -0.0784534 -0.0746911 -0.0701273 -0.0659149 -0.0893534 -0.089957 -0.0885915 -0.0868238 -0.0845714 -0.0817798 -0.0784534 -0.0746911 -0.0701273 -0.0659149 -0.0891705 -0.0905798 -0.088817 -0.0871393 -0.0848086 -0.0819862 -0.0786356 -0.0747959 -0.0702503 -0.0661899 
</DataArray>
<DataArray Name="Strain_12" format="ascii" type="Float64">
-0.00500696 0.000493579 -0.00801925 -0.0121328 0.00801925 0.0121328 0.00500696 -0.000493579 -0.0123429 0.0116202 0.0192115 -0.0272849 -0.0192115 0.0272849 0.0123429 -0.0116202 -0.0166947 0.0138493 0.0320197 -0.0197949 -0.0320197 0.0197949 0.0166947 -0.0138493 -0.00271783 0.00526495 0.0105777 0.00763796 -0.0105777 -0.00763796 0.00271783 -0.00526495 -0.00058499 0.000139212 -3.1975e-05 7.0987e-06 -1.76762e-06 1.76762e-06 -7.0987e-06 3.1975e-05 -0.000139212 0.00058499 0.000273224 -6.83374e-05 1.58541e-05 -3.39322e-06 7.45789e-07 -7.45789e-07 3.39322e-06 -1.58541e-05 6.83374e-05 -0.000273224 -0.000234404 0.00184058 -0.000868353 0.000311269 -0.000120044 0.000120044 -0.000311269 0.000868353 -0.00184058 0.000234404 5.90349e-05 -0.00180071 0.000859285 -0.000309184 0.000119469 -0.000119469 0.000309184 -0.000859285 0.00180071 -5.90349e-05 -0.00113091 0.00275633 -0.00125301 0.000442758 -0.000169248 0.000169248 -0.000442758 0.00125301 -0.00275633 0.00113091 0.00114209 -0.00275887 0.00125359 -0.000442891 0.000169285 -0.000169285 0.000442891 -0.00125359 0.00275887 -0.00114209 -0.000634571 0.00017771 -4.64809e-05 1.15728e-05 -3.25119e-06 3.25119e-06 -1.15728e-05 4.64809e-05 -0.00017771 0.000634571 0.000973178 -0.000254686 6.39897e-05 -1.55973e-05 4.361e-06 -4.361e-06 1.55973e-05 -6.39897e-05 0.000254686 -0.000973178 0.00419292 -0.00120818 0.000197247 -0.000171508 -6.92411e-05 -0.000134297 5.24454e-05 -0.000736614 0.00256636 -0.0109117 0.00115602 -3.52223e-05 -0.000183839 -5.65727e-05 -0.00011347 -6.54862e-05 -0.000215162 0.000376828 -0.00189884 0.0061719 -0.00115602 3.52223e-05 0.000183839 5.65727e-05 0.00011347 6.54862e-05 0.000215162 -0.000376828 0.00189884 -0.0061719 -0.00419292 0.00120818 -0.000197247 0.000171508 6.92411e-05 0.000134297 -5.24454e-05 0.000736614 -0.00256636 0.0109117 0.0129567 -0.00335446 0.000671522 -0.00030466 -6.09059e-05 -0.000174396 0.000106995 -0.00104879 0.00376305 -0.0158304 -0.00538292 0.00161238 -0.000611714 1.72364e-05 -0.000156476 -6.80946e-05 -0.000278373 0.000524119 -0.00245299 0.00764857 0.00538292 -0.00161238 0.000611714 -1.72364e-05 0.000156476 6.80946e-05 0.000278373 -0.000524119 0.00245299 -0.00764857 -0.0129567 0.00335446 -0.000671522 0.00030466 6.09059e-05 0.000174396 -0.000106995 0.00104879 -0.00376305 0.0158304 0.0092674 -0.00228056 0.000774564 -2.92845e-05 0.000183717 0.000115423 0.000183278 -3.2131e-05 0.000801415 -0.00248433 -0.00426856 0.00139186 -0.000211228 0.000233255 0.000112514 0.000141626 0.000148432 8.05001e-05 0.000388284 -0.000948176 0.00426856 -0.00139186 0.000211228 -0.000233255 -0.000112514 -0.000141626 -0.000148432 -8.05001e-05 -0.000388284 0.000948176 -0.0092674 0.00228056 -0.000774564 2.92845e-05 -0.000183717 -0.000115423 -0.000183278 3.2131e-05 -0.000801415 0.00248433 
</DataArray>
<DataArray Name="Strain_13" format="ascii" type="Float64">
0.557546 0.602194 0.539635 0.601986 0.539635 0.601986 0.557546 0.602194 0.924721 0.941492 0.832532 0.864422 0.832532 0.864422 0.924721 0.941492 1.03266 1.02217 0.938961 0.937372 0.938961 0.937372 1.03266 1.02217 0.602876 0.564522 0.616648 0.548871 0.616648 0.548871 0.602876 0.564522 0.499312 0.420363 0.438885 0.434539 0.43551 0.43551 0.434539 0.438885 0.420363 0.499312 0.46867 0.428248 0.436859 0.435052 0.435411 0.435411 0.435052 0.436859 0.428248 0.46867 0.57737 0.402812 0.442816 0.433663 0.435659 0.435659 0.433663 0.442816 0.402812 0.57737 0.559949 0.407295 0.441665 0.433954 0.435603 0.435603 0.433954 0.441665 0.407295 0.559949 0.604619 0.396817 0.444128 0.43338 0.435708 0.435708 0.43338 0.444128 0.396817 0.604619 0.600409 0.3979 0.44385 0.433451 0.435694 0.435694 0.433451 0.44385 0.3979 0.600409 0.47272 0.427429 0.43702 0.435023 0.435416 0.435416 0.435023 0.43702 0.427429 0.47272 0.510104 0.41781 0.439492 0.434398 0.435538 0.435538 0.434398 0.439492 0.41781 0.510104 0.718388 0.741855 0.777215 0.80815 0.837767 0.86549 0.891337 0.915767 0.936344 0.965637 0.699651 0.746322 0.777246 0.809004 0.838436 0.866128 0.892045 0.91576 0.939745 0.950671 0.699651 0.746322 0.777246 0.809004 0.838436 0.866128 0.892045 0.91576 0.939745 0.950671 0.718388 0.741855 0.777215 0.80815 0.837767 0.86549 0.891337 0.915767 0.936344 0.965637 1.067 1.06772 1.08521 1.09715 1.1079 1.11665 1.12337 1.12892 1.1289 1.14572 1.04106 1.0736 1.0849 1.09799 1.1085 1.11722 1.12415 1.12849 1.13467 1.1193 1.04106 1.0736 1.0849 1.09799 1.1085 1.11722 1.12415 1.12849 1.13467 1.1193 1.067 1.06772 1.08521 1.09715 1.1079 1.11665 1.12337 1.12892 1.1289 1.14572 1.12932 1.11317 1.09585 1.06915 1.03511 0.993233 0.943557 0.88647 0.820251 0.751907 1.12102 1.11593 1.09592 1.0699 1.03572 0.993866 0.944321 0.886707 0.822661 0.74552 1.12102 1.11593 1.09592 1.0699 1.03572 0.993866 0.944321 0.886707 0.822661 0.74552 1.12932 1.11317 1.09585 1.06915 1.03511 0.993233 0.943557 0.88647 0.820251 0.751907 
</DataArray>
<DataArray Name="Strain_23" format="ascii" type="Float64">
-0.0362547 -0.0347389 -0.100195 -0.119032 0.100195 0.119032 0.0362547 0.0347389 0.00447831 -0.0280545 0.0254148 -0.11018 -0.0254148 0.11018 -0.00447831 0.0280545 0.0273365 -0.0103449 0.096497 -0.0432439 -0.096497 0.0432439 -0.0273365 0.0103449 0.02761 0.0308086 0.0961475 0.0917685 -0.0961475 -0.0917685 -0.02761 -0.0308086 -0.33035 -0.24004 -0.175056 -0.104313 -0.0348924 0.0348924 0.104313 0.175056 0.24004 0.33035 -0.297039 -0.247889 -0.173472 -0.104803 -0.0348128 0.0348128 0.104803 0.173472 0.247889 0.297039 -0.199509 -0.108898 -0.0876403 -0.0506088 -0.0172028 0.0172028 0.0506088 0.0876403 0.108898 0.199509 -0.107932 -0.130203 -0.0831493 -0.0518646 -0.016955 0.016955 0.0518646 0.0831493 0.130203 0.107932 -0.0479862 0.0206927 0.00242322 0.00393075 0.000892385 -0.000892385 -0.00393075 -0.00242322 -0.0206927 0.0479862 0.0669873 -0.0059153 0.00813227 0.00240252 0.0012187 -0.0012187 -0.00240252 -0.00813227 0.0059153 -0.0669873 0.31346 0.263235 0.183885 0.111161 0.0369135 -0.0369135 -0.111161 -0.183885 -0.263235 -0.31346 0.351936 0.254253 0.185757 0.110623 0.0370145 -0.0370145 -0.110623 -0.185757 -0.254253 -0.351936 0.0467205 -0.00976132 0.00208698 -0.000445309 0.000124956 -0.00010915 0.000411493 -0.00183218 0.00843457 -0.0395959 0.015391 -0.00207189 0.000193107 2.87704e-05 -2.00683e-05 3.79691e-05 -6.81885e-05 5.20444e-05 0.000931499 -0.00963531 -0.015391 0.00207189 -0.000193107 -2.87704e-05 2.00683e-05 -3.79691e-05 6.81885e-05 -5.20444e-05 -0.000931499 0.00963531 -0.0467205 0.00976132 -0.00208698 0.000445309 -0.000124956 0.00010915 -0.000411493 0.00183218 -0.00843457 0.0395959 0.0669708 -0.014269 0.00310102 -0.000679161 0.000197321 -0.000179072 0.000713694 -0.00313485 0.0145106 -0.067869 0.0196257 -0.00246114 0.000147894 7.06906e-05 -3.51006e-05 5.78615e-05 -5.80164e-05 -0.000103682 0.00243727 -0.0196531 -0.0196257 0.00246114 -0.000147894 -7.06906e-05 3.51006e-05 -5.78615e-05 5.80164e-05 0.000103682 -0.00243727 0.0196531 -0.0669708 0.014269 -0.00310102 0.000679161 -0.000197321 0.000179072 -0.000713694 0.00313485 -0.0145106 0.067869 0.0398537 -0.0100696 0.00254216 -0.000656242 0.000189493 -0.000170495 0.000495447 -0.00195239 0.0077018 -0.0305915 0.0120686 -0.00274688 0.000610402 -0.000140911 3.05056e-05 -4.04989e-05 0.000125637 -0.000576643 0.0024695 -0.0106608 -0.0120686 0.00274688 -0.000610402 0.000140911 -3.05056e-05 4.04989e-05 -0.000125637 0.000576643 -0.0024695 0.0106608 -0.0398537 0.0100696 -0.00254216 0.000656242 -0.000189493 0.000170495 -0.000495447 0.00195239 -0.0077018 0.0305915 
</DataArray>
<DataArray Name="Strain_33" format="ascii" type="Float64">
0.0873536 0.0843632 0.0868272 0.0844124 0.0868272 0.0844124 0.0873536 0.0843632 -0.0281738 -0.0296111 -0.0282628 -0.0295205 -0.0282628 -0.0295205 -0.0281738 -0.0296111 -0.0689913 -0.0690276 -0.0689832 -0.0690291 -0.0689832 -0.0690291 -0.0689913 -0.0690276 0.0797377 0.0826388 0.079713 0.0820382 0.079713 0.0820382 0.0797377 0.0826388 0.0850159 0.0854315 0.085337 0.0853584 0.0853538 0.0853538 0.0853584 0.085337 0.0854315 0.0850159 0.0858098 0.0853943 0.0854887 0.0854673 0.085472 0.085472 0.0854673 0.0854887 0.0853943 0.0858098 -0.0291398 -0.028906 -0.0289591 -0.0289471 -0.0289497 -0.0289497 -0.0289471 -0.0289591 -0.028906 -0.0291398 -0.0286421 -0.0288758 -0.0288227 -0.0288348 -0.0288322 -0.0288322 -0.0288348 -0.0288227 -0.0288758 -0.0286421 -0.0690497 -0.0690646 -0.0690612 -0.069062 -0.0690618 -0.0690618 -0.069062 -0.0690612 -0.0690646 -0.0690497 -0.0689572 -0.0689423 -0.0689457 -0.0689449 -0.0689451 -0.0689451 -0.0689449 -0.0689457 -0.0689423 -0.0689572 0.0809168 0.0804655 0.0805681 0.0805448 0.0805498 0.0805498 0.0805448 0.0805681 0.0804655 0.0809168 0.0802981 0.0807494 0.0806468 0.0806701 0.0806651 0.0806651 0.0806701 0.0806468 0.0807494 0.0802981 0.0760407 0.0621484 0.0490313 0.0365886 0.0248388 0.0137785 0.00340878 -0.00627265 -0.0152544 -0.0235975 0.0759198 0.0621716 0.049027 0.0365895 0.0248387 0.0137787 0.00340836 -0.00626989 -0.0152683 -0.0235242 0.0759198 0.0621716 0.049027 0.0365895 0.0248387 0.0137787 0.00340836 -0.00626989 -0.0152683 -0.0235242 0.0760407 0.0621484 0.0490313 0.0365886 0.0248388 0.0137785 0.00340878 -0.00627265 -0.0152544 -0.0235975 -0.0337524 -0.0405473 -0.0465713 -0.0518851 -0.0564774 -0.0603503 -0.0635033 -0.0659364 -0.0676505 -0.0686412 -0.0338243 -0.0405335 -0.046574 -0.0518847 -0.0564776 -0.0603503 -0.0635033 -0.0659366 -0.0676497 -0.0686457 -0.0338243 -0.0405335 -0.046574 -0.0518847 -0.0564776 -0.0603503 -0.0635033 -0.0659366 -0.0676497 -0.0686457 -0.0337524 -0.0405473 -0.0465713 -0.0518851 -0.0564774 -0.0603503 -0.0635033 -0.0659364 -0.0676505 -0.0686412 -0.0682849 -0.0652929 -0.0593616 -0.050491 -0.038681 -0.0239314 -0.0062433 0.0143879 0.0379431 0.0645008 -0.0682818 -0.0652936 -0.0593614 -0.050491 -0.0386809 -0.0239317 -0.00624208 0.014383 0.037963 0.0644204 -0.0682818 -0.0652936 -0.0593614 -0.050491 -0.0386809 -0.0239317 -0.00624208 0.014383 0.037963 0.0644204 -0.0682849 -0.0652929 -0.0593616 -0.050491 -0.038681 -0.0239314 -0.0062433 0.0143879 0.0379431 0.0645008 
</DataArray>
<DataArray Name="Stress_11" format="ascii" type="Float64">
-52.5704 -52.2684 -51.362 -53.3363 -51.362 -53.3363 -52.5704 -52.2684 -52.3227 -52.1603 -61.2866 -62.3961 -61.2866 -62.3961 -52.3227 -52.1603 -52.8013 -52.7727 -65.59 -66.0355 -65.59 -66.0355 -52.8013 -52.7727 -54.7278 -55.1409 -56.2869 -53.9358 -56.2869 -53.9358 -54.7278 -55.1409 -3.02323 -3.31403 -3.23957 -3.25859 -3.254 -3.254 -3.25859 -3.23957 -3.31403 -3.02323 -3.472 -3.19194 -3.26749 -3.24731 -3.25234 -3.25234 -3.24731 -3.26749 -3.19194 -3.472 -1.09323 -3.9938 -3.27504 -3.44508 -3.40822 -3.40822 -3.44508 -3.27504 -3.9938 -1.09323 -1.34289 -3.92406 -3.28923 -3.43734 -3.40587 -3.40587 -3.43734 -3.28923 -3.92406 -1.34289 -0.456231 -4.35069 -3.39226 -3.61697 -3.5688 -3.5688 -3.61697 -3.39226 -4.35069 -0.456231 -0.560018 -4.31965 -3.39624 -3.61188 -3.56591 -3.56591 -3.61188 -3.39624 -4.31965 -0.560018 -4.12874 -3.83276 -3.91466 -3.89223 -3.89794 -3.89794 -3.89223 -3.91466 -3.83276 -4.12874 -3.58636 -3.97113 -3.8743 -3.89855 -3.89282 -3.89282 -3.89855 -3.8743 -3.97113 -3.58636 -52.7194 -52.2978 -52.4282 -52.4593 -52.5078 -52.5537 -52.5983 -52.6548 -52.64 -53.0332 -52.1325 -52.6764 -52.6683 -52.7597 -52.8335 -52.91 -52.9877 -53.0536 -53.1907 -52.9199 -52.1325 -52.6764 -52.6683 -52.7597 -52.8335 -52.91 -52.9877 -53.0536 -53.1907 -52.9199 -52.7194 -52.2978 -52.4282 -52.4593 -52.5078 -52.5537 -52.5983 -52.6548 -52.64 -53.0332 -53.2831 -52.691 -52.8507 -52.8744 -52.9218 -52.9658 -53.0065 -53.0705 -52.9996 -53.6784 -52.8467 -53.5637 -53.529 -53.6302 -53.7078 -53.7887 -53.873 -53.934 -54.1298 -53.576 -52.8467 -53.5637 -53.529 -53.6302 -53.7078 -53.7887 -53.873 -53.934 -54.1298 -53.576 -53.2831 -52.691 -52.8507 -52.8744 -52.9218 -52.9658 -53.0065 -53.0705 -52.9996 -53.6784 -53.8327 -53.6622 -53.8786 -54.0027 -54.1486 -54.2905 -54.4293 -54.5865 -54.6665 -55.0676 -53.7331 -54.156 -54.1922 -54.3206 -54.4272 -54.5378 -54.6516 -54.7469 -54.9194 -54.7709 -53.7331 -54.156 -54.1922 -54.3206 -54.4272 -54.5378 -54.6516 -54.7469 -54.9194 -54.7709 -53.8327 -53.6622 -53.8786 -54.0027 -54.1486 -54.2905 -54.4293 -54.5865 -54.6665 -55.0676 
</DataArray>
<DataArray Name="Stress_22" format="ascii" type="Float64">
-3.14977 -3.46793 -3.11185 -3.66467 -3.11185 -3.66467 -3.14977 -3.46793 -3.80273 -4.07877 -4.47848 -4.78709 -4.47848 -4.78709 -3.80273 -4.07877 -4.2672 -4.52518 -5.21818 -5.39546 -5.21818 -5.39546 -4.2672 -4.52518 -4.58125 -3.87985 -4.70011 -3.86213 -4.70011 -3.86213 -4.58125 -3.87985 -3.2383 -3.29796 -3.28248 -3.28648 -3.28551 -3.28551 -3.28648 -3.28248 -3.29796 -3.2383 -3.27831 -3.21864 -3.23413 -3.23013 -3.2311 -3.2311 -3.23013 -3.23413 -3.21864 -3.27831 -3.41158 -3.44498 -3.43631 -3.43855 -3.438 -3.438 -3.43855 -3.43631 -3.44498 -3.41158 -3.41481 -3.38141 -3.39008 -3.38783 -3.38838 -3.38838 -3.38783 -3.39008 -3.38141 -3.41481 -3.50979 -3.52242 -3.51913 -3.51998 -3.51978 -3.51978 -3.51998 -3.51913 -3.52242 -3.50979 -3.61094 -3.59831 -3.6016 -3.60075 -3.60096 -3.60096 -3.60075 -3.6016 -3.59831 -3.61094 -3.92665 -3.85608 -3.8744 -3.86966 -3.87081 -3.87081 -3.86966 -3.8744 -3.85608 -3.92665 -3.87921 -3.94979 -3.93147 -3.93621 -3.93505 -3.93505 -3.93621 -3.93147 -3.94979 -3.87921 -2.98886 -3.14797 -3.11001 -3.1456 -3.15929 -3.17889 -3.19863 -3.20325 -3.3046 -2.90247 -3.06029 -3.09277 -3.13132 -3.13887 -3.16068 -3.18065 -3.19054 -3.23074 -3.22051 -3.11158 -3.06029 -3.09277 -3.13132 -3.13887 -3.16068 -3.18065 -3.19054 -3.23074 -3.22051 -3.11158 -2.98886 -3.14797 -3.11001 -3.1456 -3.15929 -3.17889 -3.19863 -3.20325 -3.3046 -2.90247 -2.92589 -3.38072 -3.29863 -3.33827 -3.35327 -3.37233 -3.3944 -3.39114 -3.5286 -2.98735 -3.15073 -3.27186 -3.33666 -3.32675 -3.35567 -3.37509 -3.38178 -3.43321 -3.40486 -3.2662 -3.15073 -3.27186 -3.33666 -3.32675 -3.35567 -3.37509 -3.38178 -3.43321 -3.40486 -3.2662 -2.92589 -3.38072 -3.29863 -3.33827 -3.35327 -3.37233 -3.3944 -3.39114 -3.5286 -2.98735 -3.22602 -3.56968 -3.53642 -3.59061 -3.62506 -3.66367 -3.70162 -3.74095 -3.76675 -3.87991 -3.35944 -3.52124 -3.55247 -3.58562 -3.62636 -3.664 -3.69937 -3.74753 -3.75131 -3.89975 -3.35944 -3.52124 -3.55247 -3.58562 -3.62636 -3.664 -3.69937 -3.74753 -3.75131 -3.89975 -3.22602 -3.56968 -3.53642 -3.59061 -3.62506 -3.66367 -3.70162 -3.74095 -3.76675 -3.87991 
</DataArray>
<DataArray Name="Stress_12" format="ascii" type="Float64">