<?xml version="1.0"?>
<VTKFile byte_order="LittleEndian" type="UnstructuredGrid" version="0.1">
<UnstructuredGrid>
<Piece NumberOfCells="232" NumberOfPoints="342">
<PointData>
<DataArray Name="Warping_X" format="ascii" type="Float64">
0.0440443 0.0405119 0.0423205 0.041124 0.0407639 0.0443309 0.0427166 0.0443925 0.0425788 0.0443309 0.041124 0.0427166 0.0405119 0.0407639 0.0440443 0.0423205 0.0443925 0.0425788 -0.0186659 -0.0205084 -0.019593 -0.0198011 -0.0201812 -0.0182246 -0.019022 -0.0184052 -0.0193033 -0.0182246 -0.0198011 -0.019022 -0.0205084 -0.0201812 -0.0186659 -0.019593 -0.0184052 -0.0193033 -0.0391066 -0.0389962 -0.0390574 -0.0384528 -0.0387163 -0.0385531 -0.038512 -0.0388259 -0.0387822 -0.0385531 -0.0384528 -0.038512 -0.0389962 -0.0387163 -0.0391066 -0.0390574 -0.0388259 -0.0387822 0.0504666 0.0542553 0.0524184 0.0544736 0.0545816 0.0510745 0.0527623 0.0507346 0.0526592 0.0510745 0.0544736 0.0527623 0.0542553 0.0545816 0.0504666 0.0524184 0.0507346 0.0526592 0.0445342 0.0451298 0.045456 0.0456719 0.0457407 0.0456719 0.045456 0.0451298 0.0445342 0.0421767 0.0425645 0.0429392 0.0431442 0.0432157 0.0431442 0.0429392 0.0425645 0.0421767 0.0433489 0.0438395 0.0441903 0.0444006 0.0444708 0.0444006 0.0441903 0.0438395 0.0433489 -0.0173231 -0.0164039 -0.0157966 -0.0154223 -0.015299 -0.0154223 -0.0157966 -0.0164039 -0.0173231 -0.0184771 -0.0176608 -0.0170296 -0.0166606 -0.0165361 -0.0166606 -0.0170296 -0.0176608 -0.0184771 -0.0179063 -0.0170393 -0.0164198 -0.0160482 -0.0159243 -0.0160482 -0.0164198 -0.0170393 -0.0179063 -0.037463 -0.036628 -0.0360287 -0.0356697 -0.03555 -0.0356697 -0.0360287 -0.036628 -0.037463 -0.0373923 -0.0365503 -0.0359526 -0.0355933 -0.0354736 -0.0355933 -0.0359526 -0.0365503 -0.0373923 -0.0374338 -0.0365961 -0.0359975 -0.0356383 -0.0355186 -0.0356383 -0.0359975 -0.0365961 -0.0374338 0.0520565 0.0523648 0.0526884 0.0528616 0.0529226 0.0528616 0.0526884 0.0523648 0.0520565 0.054557 0.0550854 0.0553576 0.0555422 0.0556004 0.0555422 0.0553576 0.0550854 0.054557 0.0533003 0.0537173 0.0540155 0.0541944 0.054254 0.0541944 0.0540155 0.0537173 0.0533003 0.0327217 0.0254639 0.018574 0.012082 0.00598306 0.000277711 -0.00503363 -0.00995402 -0.0144654 0.0334973 0.0262054 0.0193066 0.0127897 0.00665725 0.000908598 -0.00445645 -0.00943627 -0.0140383 0.0331256 0.0258401 0.0189466 0.0124424 0.00632654 0.000599508 -0.00473857 -0.00968822 -0.0142508 0.0334973 0.0262054 0.0193066 0.0127897 0.00665725 0.000908598 -0.00445645 -0.00943627 -0.0140383 0.0327217 0.0254639 0.018574 0.012082 0.00598306 0.000277711 -0.00503363 -0.00995402 -0.0144654 0.0331256 0.0258401 0.0189466 0.0124424 0.00632654 0.000599508 -0.00473857 -0.00968822 -0.0142508 -0.0242431 -0.0274957 -0.0303604 -0.0328192 -0.0348753 -0.0365283 -0.0377783 -0.0386249 -0.0390693 -0.0234865 -0.0267962 -0.0296921 -0.0321814 -0.0342626 -0.035936 -0.0372015 -0.0380592 -0.0385088 -0.0238527 -0.0271403 -0.0300198 -0.0324938 -0.0345626 -0.0362257 -0.0374834 -0.0383358 -0.038782 -0.0234865 -0.0267962 -0.0296921 -0.0321814 -0.0342626 -0.035936 -0.0372015 -0.0380592 -0.0385088 -0.0242431 -0.0274957 -0.0303604 -0.0328192 -0.0348753 -0.0365283 -0.0377783 -0.0386249 -0.0390693 -0.0238527 -0.0271403 -0.0300198 -0.0324938 -0.0345626 -0.0362257 -0.0374834 -0.0383358 -0.038782 -0.0375054 -0.0343682 -0.0295709 -0.0231166 -0.0150048 -0.00523514 0.00619077 0.0192793 0.0340054 -0.0369374 -0.0337751 -0.0289572 -0.0224853 -0.0143592 -0.00457897 0.00685552 0.0199438 0.0346886 -0.0372151 -0.0340653 -0.0292576 -0.0227946 -0.0146756 -0.00490079 0.00653014 0.0196154 0.0343638 -0.0369374 -0.0337751 -0.0289572 -0.0224853 -0.0143592 -0.00457897 0.00685552 0.0199438 0.0346886 -0.0375054 -0.0343682 -0.0295709 -0.0231166 -0.0150048 -0.00523514 0.00619077 0.0192793 0.0340054 -0.0372151 -0.0340653 -0.0292576 -0.0227946 -0.0146756 -0.00490079 0.00653014 0.0196154 0.0343638 
</DataArray>
<DataArray Name="Warping_Y" format="ascii" type="Float64">
0.0315953 0.0311311 0.0313355 0.0287175 0.029926 0.0290212 0.0289656 0.0302938 0.0301719 -0.0290212 -0.0287175 -0.0289656 -0.0311311 -0.029926 -0.0315953 -0.0313355 -0.0302938 -0.0301719 0.0156512 0.0150722 0.0153765 0.0138968 0.0144852 0.0144346 0.0142082 0.0150448 0.0148055 -0.0144346 -0.0138968 -0.0142082 -0.0150722 -0.0144852 -0.0156512 -0.0153765 -0.0150448 -0.0148055 -0.000675889 -0.00122325 -0.000953088 -0.00114119 -0.00118258 -0.000621482 -0.0008822 -0.000648219 -0.000917689 0.000621482 0.00114119 0.0008822 0.00122325 0.00118258 0.000675889 0.000953088 0.000648219 0.000917689 -0.0330813 -0.0334802 -0.0332486 -0.0307537 -0.0321 -0.0304959 -0.0307294 -0.031789 -0.0320153 0.0304959 0.0307537 0.0307294 0.0334802 0.0321 0.0330813 0.0332486 0.031789 0.0320153 0.0233774 0.0175095 0.0116749 0.00583776 7.17602e-14 -0.00583776 -0.0116749 -0.0175095 -0.0233774 0.0231331 0.0173267 0.0115529 0.00577678 5.28697e-14 -0.00577678 -0.0115529 -0.0173267 -0.0231331 0.0232606 0.0174097 0.0116175 0.00580612 6.23168e-14 -0.00580612 -0.0116175 -0.0174097 -0.0232606 0.0116249 0.00870765 0.00580589 0.00290313 -5.90332e-14 -0.00290313 -0.00580589 -0.00870765 -0.0116249 0.0111938 0.00838454 0.00559042 0.0027954 -7.65778e-14 -0.0027954 -0.00559042 -0.00838454 -0.0111938 0.0114134 0.00854164 0.00570004 0.00284868 -6.78048e-14 -0.00284868 -0.00570004 -0.00854164 -0.0114134 -0.000501113 -0.000375435 -0.000250258 -0.000125159 -1.0782e-13 0.000125159 0.000250258 0.000375435 0.000501113 -0.000917703 -0.000687674 -0.000458465 -0.000229253 -1.30106e-13 0.000229253 0.000458465 0.000687674 0.000917703 -0.000710204 -0.000531122 -0.00035452 -0.000177159 -1.18961e-13 0.000177159 0.00035452 0.000531122 0.000710204 -0.0245663 -0.0183999 -0.0122686 -0.00613462 2.07756e-13 0.00613462 0.0122686 0.0183999 0.0245663 -0.0247741 -0.0185554 -0.0123723 -0.00618646 1.8538e-13 0.00618646 0.0123723 0.0185554 0.0247741 -0.0246753 -0.018469 -0.0123243 -0.00615933 1.96567e-13 0.00615933 0.0123243 0.018469 0.0246753 -0.0294023 -0.0275598 -0.0257644 -0.0240085 -0.0223214 -0.0207245 -0.0192417 -0.0178917 -0.0167164 -0.0270754 -0.0253685 -0.0236887 -0.0220545 -0.0204874 -0.0190112 -0.017648 -0.0164213 -0.0153571 -0.0282403 -0.0264633 -0.0247266 -0.023031 -0.0214039 -0.0198672 -0.0184442 -0.0171552 -0.016036 0.0270754 0.0253685 0.0236887 0.0220545 0.0204874 0.0190112 0.017648 0.0164213 0.0153571 0.0294023 0.0275598 0.0257644 0.0240085 0.0223214 0.0207245 0.0192417 0.0178917 0.0167164 0.0282403 0.0264633 0.0247266 0.023031 0.0214039 0.0198672 0.0184442 0.0171552 0.016036 -0.0132295 -0.0114258 -0.0097242 -0.00809703 -0.00653645 -0.00503035 -0.00356753 -0.00213651 -0.000726329 -0.0121673 -0.0104927 -0.00891192 -0.00740835 -0.00597057 -0.00458747 -0.00324757 -0.00193974 -0.000651247 -0.0126985 -0.0109584 -0.00931777 -0.00775228 -0.00625322 -0.00480867 -0.00340736 -0.00203807 -0.000688552 0.0121673 0.0104927 0.00891192 0.00740835 0.00597057 0.00458747 0.00324757 0.00193974 0.000651247 0.0132295 0.0114258 0.0097242 0.00809703 0.00653645 0.00503035 0.00356753 0.00213651 0.000726329 0.0126985 0.0109584 0.00931777 0.00775228 0.00625322 0.00480867 0.00340736 0.00203807 0.000688552 0.00405347 0.00699268 0.0100455 0.0131905 0.0164128 0.0196955 0.0230237 0.0263768 0.0297545 0.00370016 0.0063967 0.0091996 0.0120965 0.0150701 0.0181046 0.0211837 0.0242897 0.027416 0.00387651 0.00669457 0.00962243 0.0126434 0.0157414 0.0188999 0.0221037 0.025333 0.0285856 -0.00370016 -0.0063967 -0.0091996 -0.0120965 -0.0150701 -0.0181046 -0.0211837 -0.0242897 -0.027416 -0.00405347 -0.00699268 -0.0100455 -0.0131905 -0.0164128 -0.0196955 -0.0230237 -0.0263768 -0.0297545 -0.00387651 -0.00669457 -0.00962243 -0.0126434 -0.0157414 -0.0188999 -0.0221037 -0.025333 -0.0285856 
</DataArray>
<DataArray Name="Warping_Z" format="ascii" type="Float64">
0 0 0 0 0 0 0 0 0 0 0 0 0 0 0 0 0 0 0 0 0 0 0 0 0 0 0 0 0 0 0 0 0 0 0 0 0 0 0 0 0 0 0 0 0 0 0 0 0 0 0 0 0 0 0 0 0 0 0 0 0 0 0 0 0 0 0 0 0 0 0 0 0 0 0 0 0 0 0 0 0 0 0 0 0 0 0 0 0 0 0 0 0 0 0 0 0 0 0 0 0 0 0 0 0 0 0 0 0 0 0 0 0 0 0 0 0 0 0 0 0 0 0 0 0 0 0 0 0 0 0 0 0 0 0 0 0 0 0 0 0 0 0 0 0 0 0 0 0 0 0 0 0 0 0 0 0 0 0 0 0 0 0 0 0 0 0 0 0 0 0 0 0 0 0 0 0 0 0 0 0 0 0 0 0 0 0 0 0 0 0 0 0 0 0 0 0 0 0 0 0 0 0 0 0 0 0 0 0 0 0 0 0 0 0 0 0 0 0 0 0 0 0 0 0 0 0 0 0 0 0 0 0 0 0 0 0 0 0 0 0 0 0 0 0 0 0 0 0 0 0 0 0 0 0 0 0 0 0 0 0 0 0 0 0 0 0 0 0 0 0 0 0 0 0 0 0 0 0 0 0 0 0 0 0 0 0 0 0 0 0 0 0 0 0 0 0 0 0 0 0 0 0 0 0 0 0 0 0 0 0 0 0 0 0 0 0 0 0 0 0 0 0 0 0 0 0 0 0 0 0 0 0 0 0 0 0 0 0 0 0 0 
</DataArray>
</PointData>
<CellData>
<DataArray Name="MaterialId" format="ascii" type="Float64">
3 3 3 3 3 3 3 3 3 3 3 3 3 3 3 3 3 3 3 3 3 3 3 3 3 3 3 3 3 3 3 3 1 1 1 1 1 1 1 1 1 1 1 1 1 1 1 1 1 1 1 1 1 1 1 1 1 1 1 1 1 1 1 1 1 1 1 1 1 1 1 1 1 1 1 1 1 1 1 1 1 1 1 1 1 1 1 1 1 1 1 1 1 1 1 1 1 1 1 1 1 1 1 1 1 1 1 1 1 1 1 1 3 3 3 3 3 3 3 3 3 3 3 3 3 3 3 3 3 3 3 3 3 3 3 3 3 3 3 3 3 3 3 3 3 3 3 3 3 3 3 3 3 3 3 3 3 3 3 3 3 3 3 3 3 3 3 3 3 3 3 3 3 3 3 3 3 3 3 3 3 3 3 3 3 3 3 3 3 3 3 3 3 3 3 3 3 3 3 3 3 3 3 3 3 3 3 3 3 3 3 3 3 3 3 3 3 3 3 3 3 3 3 3 3 3 3 3 3 3 3 3 
</DataArray>
<DataArray Name="FiberAngle" format="ascii" type="Float64">
-45 -45 -45 -45 -45 -45 -45 -45 -45 -45 -45 -45 -45 -45 -45 -45 -45 -45 -45 -45 -45 -45 -45 -45 -45 -45 -45 -45 -45 -45 -45 -45 0 0 0 0 0 0 0 0 0 0 0 0 0 0 0 0 0 0 0 0 0 0 0 0 0 0 0 0 0 0 0 0 0 0 0 0 0 0 0 0 0 0 0 0 0 0 0 0 0 0 0 0 0 0 0 0 0 0 0 0 0 0 0 0 0 0 0 0 0 0 0 0 0 0 0 0 0 0 0 0 -45 -45 -45 -45 -45 -45 -45 -45 -45 -45 -45 -45 -45 -45 -45 -45 -45 -45 -45 -45 -45 -45 -45 -45 -45 -45 -45 -45 -45 -45 -45 -45 -45 -45 -45 -45 -45 -45 -45 -45 -45 -45 -45 -45 -45 -45 -45 -45 -45 -45 -45 -45 -45 -45 -45 -45 -45 -45 -45 -45 -45 -45 -45 -45 -45 -45 -45 -45 -45 -45 -45 -45 -45 -45 -45 -45 -45 -45 -45 -45 -45 -45 -45 -45 -45 -45 -45 -45 -45 -45 -45 -45 -45 -45 -45 -45 -45 -45 -45 -45 -45 -45 -45 -45 -45 -45 -45 -45 -45 -45 -45 -45 -45 -45 -45 -45 -45 -45 -45 -45 
</DataArray>
<DataArray Name="Strain_11" format="ascii" type="Float64">
-0.353745 -0.362356 -0.342804 -0.340747 -0.342804 -0.340747 -0.353745 -0.362356 -0.182512 -0.179328 -0.169555 -0.165691 -0.169555 -0.165691 -0.182512 -0.179328 0.00928795 0.0127159 0.00848139 0.0125183 0.00848139 0.0125183 0.00928795 0.0127159 0.387641 0.375931 0.361242 0.363373 0.361242 0.363373 0.387641 0.375931 -0.276483 -0.244733 -0.252615 -0.250753 -0.251155 -0.251155 -0.250753 -0.252615 -0.244733 -0.276483 -0.279958 -0.247551 -0.255604 -0.253698 -0.254111 -0.254111 -0.253698 -0.255604 -0.247551 -0.279958 -0.134997 -0.119242 -0.123136 -0.122221 -0.122417 -0.122417 -0.122221 -0.123136 -0.119242 -0.134997 -0.138057 -0.121849 -0.12586 -0.124914 -0.125118 -0.125118 -0.124914 -0.12586 -0.121849 -0.138057 0.0100774 0.00873194 0.00906067 0.00898358 0.00900022 0.00900022 0.00898358 0.00906067 0.00873194 0.0100774 0.00701829 0.00610057 0.00631804 0.00626978 0.00627939 0.00627939 0.00626978 0.00631804 0.00610057 0.00701829 0.296797 0.262474 0.271012 0.268989 0.269428 0.269428 0.268989 0.271012 0.262474 0.296797 0.293166 0.259634 0.267966 0.265996 0.266422 0.266422 0.265996 0.267966 0.259634 0.293166 -0.324787 -0.31016 -0.293451 -0.277045 -0.260603 -0.244163 -0.227726 -0.211265 -0.19499 -0.177463 -0.328264 -0.309434 -0.293264 -0.276514 -0.25989 -0.243242 -0.226583 -0.210001 -0.193062 -0.177766 -0.328264 -0.309434 -0.293264 -0.276514 -0.25989 -0.243242 -0.226583 -0.210001 -0.193062 -0.177766 -0.324787 -0.31016 -0.293451 -0.277045 -0.260603 -0.244163 -0.227726 -0.211265 -0.19499 -0.177463 -0.153268 -0.137445 -0.120321 -0.103403 -0.0864559 -0.0695122 -0.0525675 -0.0356278 -0.0186603 -0.00183858 -0.154294 -0.136256 -0.11967 -0.102768 -0.085935 -0.0690869 -0.0522422 -0.0353963 -0.0185535 -0.00169151 -0.154294 -0.136256 -0.11967 -0.102768 -0.085935 -0.0690869 -0.0522422 -0.0353963 -0.0185535 -0.00169151 -0.153268 -0.137445 -0.120321 -0.103403 -0.0864559 -0.0695122 -0.0525675 -0.0356278 -0.0186603 -0.00183858 0.0310991 0.0650715 0.0992346 0.133349 0.167475 0.201598 0.235726 0.269831 0.304054 0.337697 0.0308448 0.0648143 0.099021 0.133168 0.167328 0.201489 0.235638 0.269833 0.303861 0.338473 0.0308448 0.0648143 0.099021 0.133168 0.167328 0.201489 0.235638 0.269833 0.303861 0.338473 0.0310991 0.0650715 0.0992346 0.133349 0.167475 0.201598 0.235726 0.269831 0.304054 0.337697 
</DataArray>
<DataArray Name="Strain_22" format="ascii" type="Float64">
-0.246508 -0.236872 -0.247884 -0.241468 -0.247884 -0.241468 -0.246508 -0.236872 -0.117732 -0.115794 -0.120751 -0.118571 -0.120751 -0.118571 -0.117732 -0.115794 0.00630685 0.0076063 0.00622262 0.00768859 0.00622262 0.00768859 0.00630685 0.0076063 0.252565 0.261353 0.257898 0.26322 0.257898 0.26322 0.252565 0.261353 -0.245421 -0.25342 -0.251434 -0.251903 -0.251802 -0.251802 -0.251903 -0.251434 -0.25342 -0.245421 -0.246714 -0.254755 -0.252757 -0.25323 -0.253128 -0.253128 -0.25323 -0.252757 -0.254755 -0.246714 -0.119519 -0.1235 -0.122516 -0.122747 -0.122698 -0.122698 -0.122747 -0.122516 -0.1235 -0.119519 -0.121838 -0.125848 -0.124856 -0.12509 -0.125039 -0.125039 -0.12509 -0.124856 -0.125848 -0.121838 0.0085974 0.00889374 0.00882197 0.00883854 0.00883504 0.00883504 0.00883854 0.00882197 0.00889374 0.0085974 0.00635576 0.00662521 0.00656043 0.0065752 0.00657214 0.00657214 0.0065752 0.00656043 0.00662521 0.00635576 0.261603 0.27011 0.267994 0.268495 0.268387 0.268387 0.268495 0.267994 0.27011 0.261603 0.260515 0.268972 0.26687 0.267367 0.26726 0.26726 0.267367 0.26687 0.268972 0.260515 -0.237335 -0.225967 -0.213265 -0.201441 -0.189303 -0.177246 -0.165215 -0.153018 -0.141289 -0.128911 -0.236709 -0.225848 -0.213438 -0.201537 -0.189497 -0.177485 -0.16549 -0.153396 -0.141682 -0.128675 -0.236709 -0.225848 -0.213438 -0.201537 -0.189497 -0.177485 -0.16549 -0.153396 -0.141682 -0.128675 -0.237335 -0.225967 -0.213265 -0.201441 -0.189303 -0.177246 -0.165215 -0.153018 -0.141289 -0.128911 -0.111966 -0.099688 -0.0871489 -0.074978 -0.0626577 -0.050385 -0.0380987 -0.0258119 -0.0135638 -0.00105685 -0.11179 -0.0998329 -0.0873843 -0.0751179 -0.0627985 -0.0504913 -0.0381855 -0.0258615 -0.0136217 -0.0010107 -0.11179 -0.0998329 -0.0873843 -0.0751179 -0.0627985 -0.0504913 -0.0381855 -0.0258615 -0.0136217 -0.0010107 -0.111966 -0.099688 -0.0871489 -0.074978 -0.0626577 -0.050385 -0.0380987 -0.0258119 -0.0135638 -0.00105685 0.0217747 0.0474224 0.0720708 0.0969749 0.121817 0.146665 0.171541 0.196333 0.221292 0.246266 0.0217621 0.0475068 0.0721212 0.0970228 0.121853 0.146698 0.17155 0.196369 0.221264 0.246122 0.0217621 0.0475068 0.0721212 0.0970228 0.121853 0.146698 0.17155 0.196369 0.221264 0.246122 0.0217747 0.0474224 0.0720708 0.0969749 0.121817 0.146665 0.171541 0.196333 0.221292 0.246266 
</DataArray>
<DataArray Name="Strain_12" format="ascii" type="Float64">
0.0224759 0.00600405 -0.0101459 0.000384535 0.0101459 -0.000384535 -0.0224759 -0.00600405 0.00363792 -0.000768049 -0.000367905 0.00295886 0.000367905 -0.00295886 -0.00363792 0.000768049 0.000918576 0.00201073 0.00128115 0.000976298 -0.00128115 -0.000976298 -0.000918576 -0.00201073 0.0115282 0.0250761 -0.00166927 -0.0114009 0.00166927 0.0114009 -0.0115282 -0.0250761 -0.000931834 -0.00196288 0.000996948 -0.000366716 0.000143563 -0.000143563 0.000366716 -0.000996948 0.00196288 0.000931834 0.000931834 0.00196288 -0.000996948 0.000366716 -0.000143563 0.000143563 -0.000366716 0.000996948 -0.00196288 -0.000931834 -5.81597e-05 -0.00107179 0.000517223 -0.000186903 7.24154e-05 -7.24154e-05 0.000186903 -0.000517223 0.00107179 5.81597e-05 5.81597e-05 0.00107179 -0.000517223 0.000186903 -7.24154e-05 7.24154e-05 -0.000186903 0.000517223 -0.00107179 -5.81597e-05 -0.00015663 0.000113063 -4.47592e-05 1.49001e-05 -5.48132e-06 5.48132e-06 -1.49001e-05 4.47592e-05 -0.000113063 0.00015663 0.00015663 -0.000113063 4.47592e-05 -1.49001e-05 5.48132e-06 -5.48132e-06 1.49001e-05 -4.47592e-05 0.000113063 -0.00015663 0.00118943 0.00202885 -0.00104408 0.000385737 -0.000151387 0.000151387 -0.000385737 0.00104408 -0.00202885 -0.00118943 -0.00118943 -0.00202885 0.00104408 -0.000385737 0.000151387 -0.000151387 0.000385737 -0.00104408 0.00202885 0.00118943 -0.00237448 0.000430506 0.000160939 0.000108756 0.000154952 0.000126798 0.0001589 0.000118783 1.02992e-05 0.0013985 0.00705337 -0.000991781 0.000277239 0.000139036 0.000129737 0.000146908 0.000138006 6.26071e-05 0.000776098 -0.00378158 -0.00705337 0.000991781 -0.000277239 -0.000139036 -0.000129737 -0.000146908 -0.000138006 -6.26071e-05 -0.000776098 0.00378158 0.00237448 -0.000430506 -0.000160939 -0.000108756 -0.000154952 -0.000126798 -0.0001589 -0.000118783 -1.02992e-05 -0.0013985 -0.00136538 0.000113027 -6.84921e-05 -7.78044e-05 -6.09018e-05 -6.94806e-05 -6.28448e-05 -7.99419e-05 -1.71568e-05 -0.000234791 0.00384572 -0.00075206 3.278e-05 -7.43833e-05 -6.88989e-05 -6.43656e-05 -7.15537e-05 -4.74312e-05 -0.000147537 0.000263782 -0.00384572 0.00075206 -3.278e-05 7.43833e-05 6.88989e-05 6.43656e-05 7.15537e-05 4.74312e-05 0.000147537 -0.000263782 0.00136538 -0.000113027 6.84921e-05 7.78044e-05 6.09018e-05 6.94806e-05 6.28448e-05 7.99419e-05 1.71568e-05 0.000234791 3.30725e-05 6.04077e-05 1.83102e-05 3.79562e-05 3.15079e-05 2.88758e-05 5.34673e-05 -6.31489e-05 0.000446975 -0.00169182 -7.97311e-05 3.24366e-05 3.98819e-05 2.95656e-05 3.05864e-05 4.7226e-05 -3.21924e-05 0.000306231 -0.00110293 0.00467976 7.97311e-05 -3.24366e-05 -3.98819e-05 -2.95656e-05 -3.05864e-05 -4.7226e-05 3.21924e-05 -0.000306231 0.00110293 -0.00467976 -3.30725e-05 -6.04077e-05 -1.83102e-05 -3.79562e-05 -3.15079e-05 -2.88758e-05 -5.34673e-05 6.31489e-05 -0.000446975 0.00169182 
</DataArray>
<DataArray Name="Strain_13" format="ascii" type="Float64">
0.615956 0.58023 0.485587 0.480339 0.485587 0.480339 0.615956 0.58023 0.29072 0.284213 0.253918 0.249164 0.253918 0.249164 0.29072 0.284213 0.0103051 0.00418846 0.0115073 0.00684285 0.0115073 0.00684285 0.0103051 0.00418846 -0.558014 -0.602431 -0.462774 -0.467331 -0.462774 -0.467331 -0.558014 -0.602431 0.167752 -0.0097384 0.0309408 0.0216315 0.0236624 0.0236624 0.0216315 0.0309408 -0.0097384 0.167752 0.149815 -0.00512523 0.0297555 0.0219316 0.0236041 0.0236041 0.0219316 0.0297555 -0.00512523 0.149815 0.0989753 0.00618031 0.0272513 0.0224787 0.0235092 0.0235092 0.0224787 0.0272513 0.00618031 0.0989753 0.100092 0.00589322 0.027325 0.0224601 0.0235128 0.0235128 0.0224601 0.027325 0.00589322 0.100092 0.0178489 0.0246245 0.0230602 0.023421 0.0233417 0.0233417 0.023421 0.0230602 0.0246245 0.0178489 0.0191403 0.0242923 0.0231455 0.0233994 0.0233459 0.0233459 0.0233994 0.0231455 0.0242923 0.0191403 -0.111979 0.0537664 0.0165341 0.0248648 0.0230885 0.0230885 0.0248648 0.0165341 0.0537664 -0.111979 -0.135491 0.0598133 0.0149805 0.0252581 0.0230121 0.0230121 0.0252581 0.0149805 0.0598133 -0.135491 0.610287 0.572034 0.544313 0.514646 0.485334 0.455965 0.426567 0.397384 0.367023 0.343022 0.595135 0.574923 0.543764 0.51475 0.485317 0.455956 0.42663 0.397051 0.368772 0.333855 0.595135 0.574923 0.543764 0.51475 0.485317 0.455956 0.42663 0.397051 0.368772 0.333855 0.610287 0.572034 0.544313 0.514646 0.485334 0.455965 0.426567 0.397384 0.367023 0.343022 0.300749 0.265497 0.2365 0.206323 0.176367 0.14637 0.116383 0.0863787 0.0564588 0.0261026 0.291887 0.26721 0.236169 0.206387 0.176355 0.146373 0.116379 0.0863991 0.0563529 0.0266524 0.291887 0.26721 0.236169 0.206387 0.176355 0.146373 0.116379 0.0863991 0.0563529 0.0266524 0.300749 0.265497 0.2365 0.206323 0.176367 0.14637 0.116383 0.0863787 0.0564588 0.0261026 -0.0313934 -0.0919902 -0.152597 -0.213203 -0.273807 -0.334424 -0.394981 -0.455789 -0.515562 -0.579598 -0.0311833 -0.092042 -0.152585 -0.213205 -0.273811 -0.334404 -0.395063 -0.455455 -0.516916 -0.574112 -0.0311833 -0.092042 -0.152585 -0.213205 -0.273811 -0.334404 -0.395063 -0.455455 -0.516916 -0.574112 -0.0313934 -0.0919902 -0.152597 -0.213203 -0.273807 -0.334424 -0.394981 -0.455789 -0.515562 -0.579598 
</DataArray>
<DataArray Name="Strain_23" format="ascii" type="Float64">
0.0187281 0.00659008 0.191837 -0.0262858 -0.191837 0.0262858 -0.0187281 -0.00659008 0.00486933 -0.00497595 0.0307252 -0.0312802 -0.0307252 0.0312802 -0.00486933 0.00497595 -0.000548921 0.000105474 -0.00269171 0.000510468 0.00269171 -0.000510468 0.000548921 -0.000105474 0.010305 0.0252856 -0.000423183 0.214935 0.000423183 -0.214935 -0.010305 -0.0252856 -0.0467649 0.0106312 -0.00241812 0.000555821 -0.000153275 0.000153275 -0.000555821 0.00241812 -0.0106312 0.0467649 0.0467649 -0.0106312 0.00241812 -0.000555821 0.000153275 -0.000153275 0.000555821 -0.00241812 0.0106312 -0.0467649 -0.0263054 0.00598007 -0.00136021 0.000312652 -8.62178e-05 8.62178e-05 -0.000312652 0.00136021 -0.00598007 0.0263054 0.0263054 -0.00598007 0.00136021 -0.000312652 8.62178e-05 -8.62178e-05 0.000312652 -0.00136021 0.00598007 -0.0263054 0.00167792 -0.000381446 8.67623e-05 -1.99429e-05 5.4995e-06 -5.4995e-06 1.99429e-05 -8.67623e-05 0.000381446 -0.00167792 -0.00167792 0.000381446 -8.67623e-05 1.99429e-05 -5.4995e-06 5.4995e-06 -1.99429e-05 8.67623e-05 -0.000381446 0.00167792 0.050791 -0.0115464 0.00262631 -0.000603674 0.000166471 -0.000166471 0.000603674 -0.00262631 0.0115464 -0.050791 -0.050791 0.0115464 -0.00262631 0.000603674 -0.000166471 0.000166471 -0.000603674 0.00262631 -0.0115464 0.050791 0.0426929 -0.009094 0.00193915 -0.000450677 8.88955e-05 -9.44033e-05 0.000229237 -0.00113606 0.00518809 -0.024675 0.00567609 -0.000178848 -0.000218032 7.75512e-05 -5.61493e-05 6.33479e-06 -6.21011e-05 3.25206e-05 0.000363441 -0.00463763 -0.00567609 0.000178848 0.000218032 -7.75512e-05 5.61493e-05 -6.33479e-06 6.21011e-05 -3.25206e-05 -0.000363441 0.00463763 -0.0426929 0.009094 -0.00193915 0.000450677 -8.88955e-05 9.44033e-05 -0.000229237 0.00113606 -0.00518809 0.024675 0.0241448 -0.00513244 0.00111866 -0.000234095 6.21918e-05 -3.08993e-07 -2.5028e-06 7.37275e-05 -0.000298333 0.001463 0.00462367 -0.000412151 -2.67229e-05 4.47974e-05 -5.23343e-06 1.27671e-05 8.88548e-06 9.93535e-06 -2.85269e-05 0.000340671 -0.00462367 0.000412151 2.67229e-05 -4.47974e-05 5.23343e-06 -1.27671e-05 -8.88548e-06 -9.93535e-06 2.85269e-05 -0.000340671 -0.0241448 0.00513244 -0.00111866 0.000234095 -6.21918e-05 3.08993e-07 2.5028e-06 -7.37275e-05 0.000298333 -0.001463 -0.00101186 0.000254083 -6.79589e-05 2.21793e-05 -3.45497e-05 0.000113299 -0.000450647 0.00177099 -0.00700656 0.0277057 -0.0002214 4.71888e-05 -1.19436e-05 5.44786e-07 -2.42911e-06 3.8061e-06 -3.53448e-05 0.000182891 -0.000928961 0.00444162 0.0002214 -4.71888e-05 1.19436e-05 -5.44786e-07 2.42911e-06 -3.8061e-06 3.53448e-05 -0.000182891 0.000928961 -0.00444162 0.00101186 -0.000254083 6.79589e-05 -2.21793e-05 3.45497e-05 -0.000113299 0.000450647 -0.00177099 0.00700656 -0.0277057 
</DataArray>
<DataArray Name="Strain_33" format="ascii" type="Float64">
0.4975 0.4925 0.4975 0.4925 0.4975 0.4925 0.4975 0.4925 0.2525 0.2475 0.2525 0.2475 0.2525 0.2475 0.2525 0.2475 0.0025 -0.0025 0.0025 -0.0025 0.0025 -0.0025 0.0025 -0.0025 -0.4925 -0.4975 -0.4925 -0.4975 -0.4925 -0.4975 -0.4925 -0.4975 0.4925 0.4925 0.4925 0.4925 0.4925 0.4925 0.4925 0.4925 0.4925 0.4925 0.4975 0.4975 0.4975 0.4975 0.4975 0.4975 0.4975 0.4975 0.4975 0.4975 0.2475 0.2475 0.2475 0.2475 0.2475 0.2475 0.2475 0.2475 0.2475 0.2475 0.2525 0.2525 0.2525 0.2525 0.2525 0.2525 0.2525 0.2525 0.2525 0.2525 -0.0025 -0.0025 -0.0025 -0.0025 -0.0025 -0.0025 -0.0025 -0.0025 -0.0025 -0.0025 0.0025 0.0025 0.0025 0.0025 0.0025 0.0025 0.0025 0.0025 0.0025 0.0025 -0.4975 -0.4975 -0.4975 -0.4975 -0.4975 -0.4975 -0.4975 -0.4975 -0.4975 -0.4975 -0.4925 -0.4925 -0.4925 -0.4925 -0.4925 -0.4925 -0.4925 -0.4925 -0.4925 -0.4925 0.47825 0.45475 0.43125 0.40775 0.38425 0.36075 0.33725 0.31375 0.29025 0.26675 0.47825 0.45475 0.43125 0.40775 0.38425 0.36075 0.33725 0.31375 0.29025 0.26675 0.47825 0.45475 0.43125 0.40775 0.38425 0.36075 0.33725 0.31375 0.29025 0.26675 0.47825 0.45475 0.43125 0.40775 0.38425 0.36075 0.33725 0.31375 0.29025 0.26675 0.233 0.209 0.185 0.161 0.137 0.113 0.089 0.065 0.041 0.017 0.233 0.209 0.185 0.161 0.137 0.113 0.089 0.065 0.041 0.017 0.233 0.209 0.185 0.161 0.137 0.113 0.089 0.065 0.041 0.017 0.233 0.209 0.185 0.161 0.137 0.113 0.089 0.065 0.041 0.017 -0.02925 -0.07775 -0.12625 -0.17475 -0.22325 -0.27175 -0.32025 -0.36875 -0.41725 -0.46575 -0.02925 -0.07775 -0.12625 -0.17475 -0.22325 -0.27175 -0.32025 -0.36875 -0.41725 -0.46575 -0.02925 -0.07775 -0.12625 -0.17475 -0.22325 -0.27175 -0.32025 -0.36875 -0.41725 -0.46575 -0.02925 -0.07775 -0.12625 -0.17475 -0.22325 -0.27175 -0.32025 -0.36875 -0.41725 -0.46575 
</DataArray>
<DataArray Name="Stress_11" format="ascii" type="Float64">
-90.3234 -89.3242 -76.0624 -75.4545 -76.0624 -75.4545 -90.3234 -89.3242 -44.3051 -43.4729 -38.0833 -37.244 -38.0833 -37.244 -44.3051 -43.4729 1.70935 2.54148 1.41125 2.25876 1.41125 2.25876 1.70935 2.54148 93.6968 94.7353 79.163 79.6891 79.163 79.6891 93.6968 94.7353 -23.8571 -20.5514 -21.3721 -21.1783 -21.2201 -21.2201 -21.1783 -21.3721 -20.5514 -23.8571 -24.1402 -20.7628 -21.6021 -21.4034 -21.4464 -21.4464 -21.4034 -21.6021 -20.7628 -24.1402 -11.4446 -9.80471 -10.21 -10.1147 -10.1352 -10.1352 -10.1147 -10.21 -9.80471 -11.4446 -11.7101 -10.0206 -10.4388 -10.3402 -10.3615 -10.3615 -10.3402 -10.4388 -10.0206 -11.7101 1.28908 1.14782 1.18235 1.17425 1.176 1.176 1.17425 1.18235 1.14782 1.28908 1.0258 0.931319 0.953683 0.948731 0.949714 0.949714 0.948731 0.953683 0.931319 1.0258 26.4247 22.8474 23.7373 23.5265 23.5721 23.5721 23.5265 23.7373 22.8474 26.4247 26.13 22.6391 23.5065 23.3015 23.3457 23.3457 23.3015 23.5065 22.6391 26.13 -84.9467 -80.3444 -76.1667 -71.9127 -67.672 -63.4293 -59.1856 -54.9502 -50.6671 -46.6468 -84.362 -80.4331 -76.0797 -71.8024 -67.5119 -63.2234 -58.9359 -54.6401 -50.392 -45.8811 -84.362 -80.4331 -76.0797 -71.8024 -67.5119 -63.2234 -58.9359 -54.6401 -50.392 -45.8811 -84.9467 -80.3444 -76.1667 -71.9127 -67.672 -63.4293 -59.1856 -54.9502 -50.6671 -46.6468 -40.4222 -35.8392 -31.5114 -27.137 -22.7709 -18.4033 -14.036 -9.66832 -5.30311 -0.923534 -39.8534 -35.7237 -31.3387 -27.0005 -22.6539 -18.3087 -13.9633 -9.61826 -5.27075 -0.937603 -39.8534 -35.7237 -31.3387 -27.0005 -22.6539 -18.3087 -13.9633 -9.61826 -5.27075 -0.937603 -40.4222 -35.8392 -31.5114 -27.137 -22.7709 -18.4033 -14.036 -9.66832 -5.30311 -0.923534 7.50363 16.294 25.0959 33.895 42.6946 51.4949 60.2917 69.1031 77.854 86.8561 7.42538 16.242 25.047 33.8549 42.6622 51.4689 60.279 69.0746 77.9307 86.5355 7.42538 16.242 25.047 33.8549 42.6622 51.4689 60.279 69.0746 77.9307 86.5355 7.50363 16.294 25.0959 33.895 42.6946 51.4949 60.2917 69.1031 77.854 86.8561 
</DataArray>
<DataArray Name="Stress_22" format="ascii" type="Float64">
-26.2009 -25.4675 -26.2686 -25.5388 -26.2686 -25.5388 -26.2009 -25.4675 -12.4756 -12.2959 -12.5077 -12.2702 -12.5077 -12.2702 -12.4756 -12.2959 1.23992 1.34513 1.20421 1.35444 1.20421 1.35444 1.23992 1.34513 28.4103 28.912 28.4082 28.9989 28.4082 28.9989 28.4103 28.912 -21.2686 -21.2754 -21.2736 -21.2741 -21.274 -21.274 -21.2741 -21.2736 -21.2754 -21.2686 -21.3699 -21.3631 -21.3648 -21.3644 -21.3645 -21.3645 -21.3644 -21.3648 -21.3631 -21.3699 -10.1548 -10.1595 -10.1583 -10.1586 -10.1585 -10.1585 -10.1586 -10.1583 -10.1595 -10.1548 -10.3586 -10.3539 -10.3551 -10.3548 -10.3549 -10.3549 -10.3548 -10.3551 -10.3539 -10.3586 1.16575 1.1613 1.16246 1.16216 1.16223 1.16223 1.16216 1.16246 1.1613 1.16575 0.970592 0.975039 0.973883 0.974182 0.974109 0.974109 0.974182 0.973883 0.975039 0.970592 23.4919 23.4837 23.4858 23.4853 23.4854 23.4854 23.4853 23.4858 23.4837 23.4919 23.4091 23.4173 23.4152 23.4157 23.4156 23.4156 23.4157 23.4152 23.4173 23.4091 -24.6872 -23.5734 -22.1949 -20.945 -19.6522 -18.3702 -17.0916 -15.7903 -14.5586 -13.1877 -24.7516 -23.5278 -22.2122 -20.9395 -19.6536 -18.3705 -17.0891 -15.7979 -14.5419 -13.1849 -24.7516 -23.5278 -22.2122 -20.9395 -19.6536 -18.3705 -17.0891 -15.7979 -14.5419 -13.1849 -24.6872 -23.5734 -22.1949 -20.945 -19.6522 -18.3702 -17.0916 -15.7903 -14.5586 -13.1877 -11.3755 -10.1135 -8.7616 -7.46698 -6.15144 -4.84232 -3.53135 -2.22053 -0.913672 0.421287 -11.4042 -10.0893 -8.77117 -7.46385 -6.15241 -4.84194 -3.5318 -2.21922 -0.917858 0.433327 -11.4042 -10.0893 -8.77117 -7.46385 -6.15241 -4.84194 -3.5318 -2.21922 -0.917858 0.433327 -11.3755 -10.1135 -8.7616 -7.46698 -6.15144 -4.84232 -3.53135 -2.22053 -0.913672 0.421287 2.84722 5.59448 8.21748 10.8723 13.5194 16.1671 18.8188 21.4582 24.1254 26.7669 2.83745 5.59677 8.21693 10.8724 13.5192 16.1678 18.8169 21.4636 24.1126 26.7848 2.83745 5.59677 8.21693 10.8724 13.5192 16.1678 18.8169 21.4636 24.1126 26.7848 2.84722 5.59448 8.21748 10.8723 13.5194 16.1671 18.8188 21.4582 24.1254 26.7669 
</DataArray>
<DataArray Name="Stress_12" format="ascii" type="Float64">