<?xml version="1.0"?>
<VTKFile byte_order="LittleEndian" type="UnstructuredGrid" version="0.1">
<UnstructuredGrid>
<Piece NumberOfCells="232" NumberOfPoints="342">
<PointData>
<DataArray Name="Warping_X" format="ascii" type="Float64">
0.028296 0.0276431 0.0279788 0.027656 0.0276381 0.0282502 0.0279529 0.0283098 0.0279759 0.0282502 0.027656 0.0279529 0.0276431 0.0276381 0.028296 0.0279788 0.0283098 0.0279759 0.0126554 0.0119286 0.0122922 0.0119882 0.0119456 0.0126062 0.0122973 0.0126436 0.0122947 0.0126062 0.0119882 0.0122973 0.0119286 0.0119456 0.0126554 0.0122922 0.0126436 0.0122947 -0.00394809 -0.00471367 -0.00432861 -0.00467209 -0.0047018 -0.00403015 -0.00435111 -0.00397587 -0.00433854 -0.00403015 -0.00467209 -0.00435111 -0.00471367 -0.0047018 -0.00394809 -0.00432861 -0.00397587 -0.00433854 -0.0387355 -0.0395032 -0.0391323 -0.0394623 -0.0395258 -0.0387725 -0.0391167 -0.0387454 -0.0391377 -0.0387725 -0.0394623 -0.0391167 -0.0395032 -0.0395258 -0.0387355 -0.0391323 -0.0387454 -0.0391377 0.0280975 0.0280596 0.0280143 0.0279908 0.0279823 0.0279908 0.0280143 0.0280596 0.0280975 0.0276612 0.0275848 0.0275484 0.0275229 0.027515 0.0275229 0.0275484 0.0275848 0.0276612 0.0278794 0.0278222 0.0277814 0.0277569 0.0277487 0.0277569 0.0277814 0.0278222 0.0278794 0.0125345 0.0125627 0.0125638 0.0125683 0.0125693 0.0125683 0.0125638 0.0125627 0.0125345 0.0120808 0.0120689 0.0120793 0.0120818 0.0120832 0.0120818 0.0120793 0.0120689 0.0120808 0.0123078 0.0123159 0.0123217 0.0123252 0.0123264 0.0123252 0.0123217 0.0123159 0.0123078 -0.00416026 -0.00417442 -0.00420421 -0.00421812 -0.00422337 -0.00421812 -0.00420421 -0.00417442 -0.00416026 -0.00463193 -0.00468763 -0.00470777 -0.00472381 -0.00472854 -0.00472381 -0.00470777 -0.00468763 -0.00463193 -0.00439602 -0.00443097 -0.00445593 -0.0044709 -0.0044759 -0.0044709 -0.00445593 -0.00443097 -0.00439602 -0.0388061 -0.0387392 -0.0387125 -0.0386922 -0.0386861 -0.0386922 -0.0387125 -0.0387392 -0.0388061 -0.0393131 -0.0392909 -0.0392538 -0.0392359 -0.0392292 -0.0392359 -0.0392538 -0.0392909 -0.0393131 -0.0390595 -0.0390148 -0.038983 -0.0389638 -0.0389575 -0.0389638 -0.038983 -0.0390148 -0.0390595 0.0261486 0.0246753 0.0231922 0.0217049 0.0202127 0.0187155 0.0172136 0.0157058 0.0141989 0.0261858 0.0247002 0.02321 0.021713 0.0202097 0.0187 0.0171837 0.0156616 0.0141307 0.0261689 0.0246875 0.023201 0.0217089 0.0202111 0.0187076 0.0171986 0.0156838 0.0141626 0.0261858 0.0247002 0.02321 0.021713 0.0202097 0.0187 0.0171837 0.0156616 0.0141307 0.0261486 0.0246753 0.0231922 0.0217049 0.0202127 0.0187155 0.0172136 0.0157058 0.0141989 0.0261689 0.0246875 0.023201 0.0217089 0.0202111 0.0187076 0.0171986 0.0156838 0.0141626 0.0103448 0.00878673 0.00721698 0.00564259 0.00406232 0.00247636 0.000884874 -0.000713445 -0.00231108 0.0104224 0.0088381 0.00725006 0.00565541 0.00405477 0.00244804 0.000835072 -0.000783432 -0.00241069 0.0103856 0.00881208 0.00723341 0.00564892 0.00405846 0.00246209 0.000859894 -0.000748282 -0.00236319 0.0104224 0.0088381 0.00725006 0.00565541 0.00405477 0.00244804 0.000835072 -0.000783432 -0.00241069 0.0103448 0.00878673 0.00721698 0.00564259 0.00406232 0.00247636 0.000884874 -0.000713445 -0.00231108 0.0103856 0.00881208 0.00723341 0.00564892 0.00405846 0.00246209 0.000859894 -0.000748282 -0.00236319 -0.00801665 -0.0113258 -0.0146645 -0.0180269 -0.0214144 -0.0248268 -0.0282637 -0.0317266 -0.03521 -0.00797511 -0.0113041 -0.014656 -0.0180313 -0.0214299 -0.0248519 -0.0282972 -0.0317659 -0.0352581 -0.00799387 -0.0113155 -0.0146602 -0.0180292 -0.0214222 -0.0248394 -0.0282807 -0.0317459 -0.0352362 -0.00797511 -0.0113041 -0.014656 -0.0180313 -0.0214299 -0.0248519 -0.0282972 -0.0317659 -0.0352581 -0.00801665 -0.0113258 -0.0146645 -0.0180269 -0.0214144 -0.0248268 -0.0282637 -0.0317266 -0.03521 -0.00799387 -0.0113155 -0.0146602 -0.0180292 -0.0214222 -0.0248394 -0.0282807 -0.0317459 -0.0352362 
</DataArray>
<DataArray Name="Warping_Y" format="ascii" type="Float64">
0.00579619 0.00581265 0.00579969 0.00536175 0.00558759 0.00532616 0.00536139 0.00555805 0.00558435 -0.00532616 -0.00536175 -0.00536139 -0.00581265 -0.00558759 -0.00579619 -0.00579969 -0.00555805 -0.00558435 0.00603309 0.00602843 0.00603709 0.00555861 0.00579407 0.00556366 0.00557804 0.00579898 0.00581295 -0.00556366 -0.00555861 -0.00557804 -0.00602843 -0.00579407 -0.00603309 -0.00603709 -0.00579898 -0.00581295 0.00625696 0.00628088 0.0062758 0.00579097 0.00603616 0.00576925 0.00579791 0.00601365 0.00604318 -0.00576925 -0.00579097 -0.00579791 -0.00628088 -0.00603616 -0.00625696 -0.0062758 -0.00601365 -0.00604318 0.00675009 0.00674399 0.00674146 0.00619647 0.00646652 0.00622435 0.00623108 0.00648734 0.00649142 -0.00622435 -0.00619647 -0.00623108 -0.00674399 -0.00646652 -0.00675009 -0.00674146 -0.00648734 -0.00649142 0.00429043 0.00321353 0.00214269 0.0010714 -3.71702e-14 -0.0010714 -0.00214269 -0.00321353 -0.00429043 0.00431883 0.00323485 0.00215689 0.00107851 -3.80361e-14 -0.00107851 -0.00215689 -0.00323485 -0.00431883 0.00430575 0.00322262 0.00215047 0.00107474 -3.76033e-14 -0.00107474 -0.00215047 -0.00322262 -0.00430575 0.00448098 0.00335643 0.00223793 0.00111903 6.80368e-14 -0.00111903 -0.00223793 -0.00335643 -0.00448098 0.00447693 0.0033534 0.00223591 0.00111802 7.0122e-14 -0.00111802 -0.00223591 -0.0033534 -0.00447693 0.00448041 0.00335321 0.00223764 0.0011183 6.90794e-14 -0.0011183 -0.00223764 -0.00335321 -0.00448041 0.00464669 0.00348052 0.00232067 0.00116041 -4.92316e-14 -0.00116041 -0.00232067 -0.00348052 -0.00464669 0.00466405 0.00349355 0.00232936 0.00116475 -4.46746e-14 -0.00116475 -0.00232936 -0.00349355 -0.00466405 0.00465681 0.00348528 0.00232576 0.00116235 -4.6953e-14 -0.00116235 -0.00232576 -0.00348528 -0.00465681 0.00501375 0.00375532 0.00250393 0.00125204 2.49002e-14 -0.00125204 -0.00250393 -0.00375532 -0.00501375 0.00499161 0.00373867 0.00249285 0.00124649 2.69338e-14 -0.00124649 -0.00249285 -0.00373867 -0.00499161 0.00500385 0.0037452 0.00249918 0.00124902 2.59167e-14 -0.00124902 -0.00249918 -0.0037452 -0.00500385 -0.00574856 -0.00567645 -0.00562658 -0.00559649 -0.00559099 -0.00561323 -0.00566707 -0.00575451 -0.00588599 -0.00528847 -0.00521773 -0.00516512 -0.00513355 -0.00512621 -0.00514678 -0.00519859 -0.00528528 -0.00541197 -0.00551866 -0.00544686 -0.00539578 -0.00536486 -0.00535845 -0.0053798 -0.00543268 -0.00551953 -0.00564895 0.00528847 0.00521773 0.00516512 0.00513355 0.00512621 0.00514678 0.00519859 0.00528528 0.00541197 0.00574856 0.00567645 0.00562658 0.00559649 0.00559099 0.00561323 0.00566707 0.00575451 0.00588599 0.00551866 0.00544686 0.00539578 0.00536486 0.00535845 0.0053798 0.00543268 0.00551953 0.00564895 -0.00585598 -0.00570304 -0.00560242 -0.00554808 -0.00554252 -0.00558632 -0.00568085 -0.00582543 -0.00602851 -0.00537762 -0.00522599 -0.00512257 -0.00506673 -0.00505929 -0.00510139 -0.00519383 -0.00533767 -0.00553577 -0.00561676 -0.00546412 -0.00536228 -0.00530712 -0.00530064 -0.00534356 -0.00543711 -0.00558111 -0.00578208 0.00537762 0.00522599 0.00512257 0.00506673 0.00505929 0.00510139 0.00519383 0.00533767 0.00553577 0.00585598 0.00570304 0.00560242 0.00554808 0.00554252 0.00558632 0.00568085 0.00582543 0.00602851 0.00561676 0.00546412 0.00536228 0.00530712 0.00530064 0.00534356 0.00543711 0.00558111 0.00578208 -0.00606746 -0.00591998 -0.00584842 -0.00584099 -0.00589164 -0.00599272 -0.00613735 -0.00631715 -0.00652899 -0.00556977 -0.00542024 -0.00534454 -0.00533367 -0.00538064 -0.00547816 -0.005619 -0.00579573 -0.00600229 -0.00581851 -0.00566998 -0.00559641 -0.00558725 -0.00563607 -0.00573538 -0.00587814 -0.00605636 -0.00626566 0.00556977 0.00542024 0.00534454 0.00533367 0.00538064 0.00547816 0.005619 0.00579573 0.00600229 0.00606746 0.00591998 0.00584842 0.00584099 0.00589164 0.00599272 0.00613735 0.00631715 0.00652899 0.00581851 0.00566998 0.00559641 0.00558725 0.00563607 0.00573538 0.00587814 0.00605636 0.00626566 
</DataArray>
<DataArray Name="Warping_Z" format="ascii" type="Float64">
0 0 0 0 0 0 0 0 0 0 0 0 0 0 0 0 0 0 0 0 0 0 0 0 0 0 0 0 0 0 0 0 0 0 0 0 0 0 0 0 0 0 0 0 0 0 0 0 0 0 0 0 0 0 0 0 0 0 0 0 0 0 0 0 0 0 0 0 0 0 0 0 0 0 0 0 0 0 0 0 0 0 0 0 0 0 0 0 0 0 0 0 0 0 0 0 0 0 0 0 0 0 0 0 0 0 0 0 0 0 0 0 0 0 0 0 0 0 0 0 0 0 0 0 0 0 0 0 0 0 0 0 0 0 0 0 0 0 0 0 0 0 0 0 0 0 0 0 0 0 0 0 0 0 0 0 0 0 0 0 0 0 0 0 0 0 0 0 0 0 0 0 0 0 0 0 0 0 0 0 0 0 0 0 0 0 0 0 0 0 0 0 0 0 0 0 0 0 0 0 0 0 0 0 0 0 0 0 0 0 0 0 0 0 0 0 0 0 0 0 0 0 0 0 0 0 0 0 0 0 0 0 0 0 0 0 0 0 0 0 0 0 0 0 0 0 0 0 0 0 0 0 0 0 0 0 0 0 0 0 0 0 0 0 0 0 0 0 0 0 0 0 0 0 0 0 0 0 0 0 0 0 0 0 0 0 0 0 0 0 0 0 0 0 0 0 0 0 0 0 0 0 0 0 0 0 0 0 0 0 0 0 0 0 0 0 0 0 0 0 0 0 0 0 0 0 0 0 0 0 0 0 0 0 0 0 0 0 0 0 0 0 
</DataArray>
</PointData>
<CellData>
<DataArray Name="MaterialId" format="ascii" type="Float64">
3 3 3 3 3 3 3 3 3 3 3 3 3 3 3 3 3 3 3 3 3 3 3 3 3 3 3 3 3 3 3 3 1 1 1 1 1 1 1 1 1 1 1 1 1 1 1 1 1 1 1 1 1 1 1 1 1 1 1 1 1 1 1 1 1 1 1 1 1 1 1 1 1 1 1 1 1 1 1 1 1 1 1 1 1 1 1 1 1 1 1 1 1 1 1 1 1 1 1 1 1 1 1 1 1 1 1 1 1 1 1 1 3 3 3 3 3 3 3 3 3 3 3 3 3 3 3 3 3 3 3 3 3 3 3 3 3 3 3 3 3 3 3 3 3 3 3 3 3 3 3 3 3 3 3 3 3 3 3 3 3 3 3 3 3 3 3 3 3 3 3 3 3 3 3 3 3 3 3 3 3 3 3 3 3 3 3 3 3 3 3 3 3 3 3 3 3 3 3 3 3 3 3 3 3 3 3 3 3 3 3 3 3 3 3 3 3 3 3 3 3 3 3 3 3 3 3 3 3 3 3 3 
</DataArray>
<DataArray Name="FiberAngle" format="ascii" type="Float64">
-45 -45 -45 -45 -45 -45 -45 -45 -45 -45 -45 -45 -45 -45 -45 -45 -45 -45 -45 -45 -45 -45 -45 -45 -45 -45 -45 -45 -45 -45 -45 -45 0 0 0 0 0 0 0 0 0 0 0 0 0 0 0 0 0 0 0 0 0 0 0 0 0 0 0 0 0 0 0 0 0 0 0 0 0 0 0 0 0 0 0 0 0 0 0 0 0 0 0 0 0 0 0 0 0 0 0 0 0 0 0 0 0 0 0 0 0 0 0 0 0 0 0 0 0 0 0 0 -45 -45 -45 -45 -45 -45 -45 -45 -45 -45 -45 -45 -45 -45 -45 -45 -45 -45 -45 -45 -45 -45 -45 -45 -45 -45 -45 -45 -45 -45 -45 -45 -45 -45 -45 -45 -45 -45 -45 -45 -45 -45 -45 -45 -45 -45 -45 -45 -45 -45 -45 -45 -45 -45 -45 -45 -45 -45 -45 -45 -45 -45 -45 -45 -45 -45 -45 -45 -45 -45 -45 -45 -45 -45 -45 -45 -45 -45 -45 -45 -45 -45 -45 -45 -45 -45 -45 -45 -45 -45 -45 -45 -45 -45 -45 -45 -45 -45 -45 -45 -45 -45 -45 -45 -45 -45 -45 -45 -45 -45 -45 -45 -45 -45 -45 -45 -45 -45 -45 -45 
</DataArray>
<DataArray Name="Strain_11" format="ascii" type="Float64">
-0.0651088 -0.0673447 -0.0631126 -0.0634673 -0.0631126 -0.0634673 -0.0651088 -0.0673447 -0.0711999 -0.0712756 -0.0657742 -0.0658329 -0.0657742 -0.0658329 -0.0711999 -0.0712756 -0.0743189 -0.0748318 -0.0683633 -0.0684241 -0.0683633 -0.0684241 -0.0743189 -0.0748318 -0.0789123 -0.0758965 -0.0736567 -0.073362 -0.0736567 -0.073362 -0.0789123 -0.0758965 -0.0515093 -0.0455633 -0.0470385 -0.0466901 -0.0467653 -0.0467653 -0.0466901 -0.0470385 -0.0455633 -0.0515093 -0.0515313 -0.045546 -0.0470314 -0.0466804 -0.0467562 -0.0467562 -0.0466804 -0.0470314 -0.045546 -0.0515313 -0.053616 -0.0474041 -0.0489416 -0.0485793 -0.0486573 -0.0486573 -0.0485793 -0.0489416 -0.0474041 -0.053616 -0.0535636 -0.0473506 -0.0488883 -0.048526 -0.048604 -0.048604 -0.048526 -0.0488883 -0.0473506 -0.0535636 -0.0556891 -0.0492572 -0.05085 -0.0504745 -0.0505554 -0.0505554 -0.0504745 -0.05085 -0.0492572 -0.0556891 -0.0556729 -0.0492309 -0.0508263 -0.0504502 -0.0505312 -0.0505312 -0.0504502 -0.0508263 -0.0492309 -0.0556729 -0.0599158 -0.0529696 -0.0546953 -0.0542871 -0.0543753 -0.0543753 -0.0542871 -0.0546953 -0.0529696 -0.0599158 -0.0597687 -0.0529097 -0.0546127 -0.0542103 -0.0542971 -0.0542971 -0.0542103 -0.0546127 -0.0529097 -0.0597687 -0.0625417 -0.0631264 -0.063335 -0.0635973 -0.0638536 -0.0641101 -0.0643676 -0.0646149 -0.0649401 -0.0647542 -0.0630578 -0.0628679 -0.0631837 -0.0633887 -0.0636178 -0.063843 -0.064063 -0.0643117 -0.0644271 -0.0651609 -0.0630578 -0.0628679 -0.0631837 -0.0633887 -0.0636178 -0.063843 -0.064063 -0.0643117 -0.0644271 -0.0651609 -0.0625417 -0.0631264 -0.063335 -0.0635973 -0.0638536 -0.0641101 -0.0643676 -0.0646149 -0.0649401 -0.0647542 -0.0651185 -0.0657887 -0.065973 -0.0662321 -0.0664813 -0.0667313 -0.0669825 -0.0672225 -0.0675451 -0.0673363 -0.0654943 -0.0652427 -0.0655921 -0.0658102 -0.0660568 -0.0662986 -0.066535 -0.066802 -0.0669281 -0.0677018 -0.0654943 -0.0652427 -0.0655921 -0.0658102 -0.0660568 -0.0662986 -0.066535 -0.066802 -0.0669281 -0.0677018 -0.0651185 -0.0657887 -0.065973 -0.0662321 -0.0664813 -0.0667313 -0.0669825 -0.0672225 -0.0675451 -0.0673363 -0.0679905 -0.0685636 -0.0690364 -0.0695286 -0.0700173 -0.0705066 -0.0709961 -0.0714834 -0.0719846 -0.072408 -0.0679902 -0.0683588 -0.068901 -0.0693954 -0.0699027 -0.0704073 -0.0709095 -0.0714236 -0.0718937 -0.0725227 -0.0679902 -0.0683588 -0.068901 -0.0693954 -0.0699027 -0.0704073 -0.0709095 -0.0714236 -0.0718937 -0.0725227 -0.0679905 -0.0685636 -0.0690364 -0.0695286 -0.0700173 -0.0705066 -0.0709961 -0.0714834 -0.0719846 -0.072408 
</DataArray>
<DataArray Name="Strain_22" format="ascii" type="Float64">
-0.0453477 -0.0440395 -0.0454864 -0.0448806 -0.0454864 -0.0448806 -0.0453477 -0.0440395 -0.0458247 -0.0458503 -0.0470239 -0.0470378 -0.0470239 -0.0470378 -0.0458247 -0.0458503 -0.0475932 -0.0477335 -0.0489664 -0.0490457 -0.0489664 -0.0490457 -0.0475932 -0.0477335 -0.0512786 -0.0527513 -0.0523331 -0.0530382 -0.0523331 -0.0530382 -0.0512786 -0.0527513 -0.0456209 -0.0471111 -0.0467413 -0.0468287 -0.0468098 -0.0468098 -0.0468287 -0.0467413 -0.0471111 -0.0456209 -0.0454645 -0.0469571 -0.0465867 -0.0466742 -0.0466553 -0.0466553 -0.0466742 -0.0465867 -0.0469571 -0.0454645 -0.047376 -0.0489291 -0.0485447 -0.0486353 -0.0486158 -0.0486158 -0.0486353 -0.0485447 -0.0489291 -0.047376 -0.0473979 -0.0489511 -0.0485667 -0.0486573 -0.0486378 -0.0486378 -0.0486573 -0.0485667 -0.0489511 -0.0473979 -0.0493049 -0.0509138 -0.0505153 -0.0506093 -0.050589 -0.050589 -0.0506093 -0.0505153 -0.0509138 -0.0493049 -0.04921 -0.0508195 -0.0504209 -0.0505149 -0.0504947 -0.0504947 -0.0505149 -0.0504209 -0.0508195 -0.04921 -0.0528715 -0.0545999 -0.0541706 -0.0542721 -0.0542502 -0.0542502 -0.0542721 -0.0541706 -0.0545999 -0.0528715 -0.0529963 -0.0547193 -0.0542914 -0.0543925 -0.0543707 -0.0543707 -0.0543925 -0.0542914 -0.0547193 -0.0529963 -0.045603 -0.0459329 -0.045979 -0.0461967 -0.0463548 -0.0465256 -0.046711 -0.0468341 -0.0471233 -0.0472305 -0.0454958 -0.0459488 -0.0460393 -0.0462432 -0.0464167 -0.0465961 -0.0467809 -0.0469364 -0.0472018 -0.0471149 -0.0454958 -0.0459488 -0.0460393 -0.0462432 -0.0464167 -0.0465961 -0.0467809 -0.0469364 -0.0472018 -0.0471149 -0.045603 -0.0459329 -0.045979 -0.0461967 -0.0463548 -0.0465256 -0.046711 -0.0468341 -0.0471233 -0.0472305 -0.0474601 -0.0477267 -0.0477842 -0.0480103 -0.0481741 -0.0483517 -0.0485446 -0.0486719 -0.0489749 -0.0490706 -0.0473583 -0.0478141 -0.047906 -0.0481104 -0.0482847 -0.0484648 -0.0486505 -0.0488061 -0.0490753 -0.0489743 -0.0473583 -0.0478141 -0.047906 -0.0481104 -0.0482847 -0.0484648 -0.0486505 -0.0488061 -0.0490753 -0.0489743 -0.0474601 -0.0477267 -0.0477842 -0.0480103 -0.0481741 -0.0483517 -0.0485446 -0.0486719 -0.0489749 -0.0490706 -0.0493936 -0.0498488 -0.0501603 -0.0505442 -0.0509016 -0.0512652 -0.0516354 -0.0519773 -0.0524007 -0.0526367 -0.0493661 -0.0498939 -0.0502007 -0.050576 -0.0509316 -0.0512912 -0.0516552 -0.0519991 -0.0524113 -0.0526071 -0.0493661 -0.0498939 -0.0502007 -0.050576 -0.0509316 -0.0512912 -0.0516552 -0.0519991 -0.0524113 -0.0526071 -0.0493936 -0.0498488 -0.0501603 -0.0505442 -0.0509016 -0.0512652 -0.0516354 -0.0519773 -0.0524007 -0.0526367 
</DataArray>
<DataArray Name="Strain_12" format="ascii" type="Float64">
0.00405914 0.000824292 -0.00210588 -0.000150113 0.00210588 0.000150113 -0.00405914 -0.000824292 0.000871693 -0.000809387 -0.000642067 0.000687753 0.000642067 -0.000687753 -0.000871693 0.000809387 0.0010649 -1.74699e-07 -0.000866141 0.000318429 0.000866141 -0.000318429 -0.0010649 1.74699e-07 -0.00199346 -0.00504342 0.000470601 0.00249813 -0.000470601 -0.00249813 0.00199346 0.00504342 -0.000138201 -0.000373152 0.000187179 -6.85621e-05 2.67756e-05 -2.67756e-05 6.85621e-05 -0.000187179 0.000373152 0.000138201 0.000138201 0.000373152 -0.000187179 6.85621e-05 -2.67756e-05 2.67756e-05 -6.85621e-05 0.000187179 -0.000373152 -0.000138201 -5.06536e-05 -0.000410155 0.000199642 -7.23649e-05 2.80885e-05 -2.80885e-05 7.23649e-05 -0.000199642 0.000410155 5.06536e-05 5.06536e-05 0.000410155 -0.000199642 7.23649e-05 -2.80885e-05 2.80885e-05 -7.23649e-05 0.000199642 -0.000410155 -5.06536e-05 -7.3264e-05 -0.000420167 0.000205803 -7.47638e-05 2.90575e-05 -2.90575e-05 7.47638e-05 -0.000205803 0.000420167 7.3264e-05 7.3264e-05 0.000420167 -0.000205803 7.47638e-05 -2.90575e-05 2.90575e-05 -7.47638e-05 0.000205803 -0.000420167 -7.3264e-05 -0.000197121 -0.000423149 0.000214691 -7.89438e-05 3.08988e-05 -3.08988e-05 7.89438e-05 -0.000214691 0.000423149 0.000197121 0.000197121 0.000423149 -0.000214691 7.89438e-05 -3.08988e-05 3.08988e-05 -7.89438e-05 0.000214691 -0.000423149 -0.000197121 -0.000448375 7.29529e-05 2.67101e-05 1.5052e-05 2.48514e-05 1.76808e-05 2.77789e-05 1.61984e-05 -3.45841e-05 0.000510163 0.00130734 -0.000186105 4.55889e-05 2.1882e-05 1.90936e-05 2.33724e-05 2.20845e-05 -1.14922e-05 0.000276148 -0.00150987 -0.00130734 0.000186105 -4.55889e-05 -2.1882e-05 -1.90936e-05 -2.33724e-05 -2.20845e-05 1.14922e-05 -0.000276148 0.00150987 0.000448375 -7.29529e-05 -2.67101e-05 -1.5052e-05 -2.48514e-05 -1.76808e-05 -2.77789e-05 -1.61984e-05 3.45841e-05 -0.000510163 -0.000472747 6.1399e-05 1.01846e-05 -5.55506e-07 9.29358e-06 1.93338e-06 1.22798e-05 2.7899e-07 -4.92769e-05 0.000488642 0.00151322 -0.000249218 3.96307e-05 4.41073e-06 3.75773e-06 7.57579e-06 7.14989e-06 -3.07083e-05 0.000276702 -0.00159405 -0.00151322 0.000249218 -3.96307e-05 -4.41073e-06 -3.75773e-06 -7.57579e-06 -7.14989e-06 3.07083e-05 -0.000276702 0.00159405 0.000472747 -6.1399e-05 -1.01846e-05 5.55506e-07 -9.29358e-06 -1.93338e-06 -1.22798e-05 -2.7899e-07 4.92769e-05 -0.000488642 -0.000322386 5.43464e-05 -2.90029e-05 -1.18826e-05 -1.5022e-05 -1.40578e-05 -1.76892e-05 1.63702e-06 -9.1137e-05 0.000325835 0.000978769 -0.00025267 4.1615e-05 -2.77021e-05 -1.10521e-05 -1.79248e-05 -2.38876e-06 -6.7008e-05 0.000208635 -0.000949326 -0.000978769 0.00025267 -4.1615e-05 2.77021e-05 1.10521e-05 1.79248e-05 2.38876e-06 6.7008e-05 -0.000208635 0.000949326 0.000322386 -5.43464e-05 2.90029e-05 1.18826e-05 1.5022e-05 1.40578e-05 1.76892e-05 -1.63702e-06 9.1137e-05 -0.000325835 
</DataArray>
<DataArray Name="Strain_13" format="ascii" type="Float64">
-0.0105267 -0.0158461 -0.0344903 -0.0344895 -0.0344903 -0.0344895 -0.0105267 -0.0158461 -0.0158701 -0.01582 -0.0299815 -0.0299148 -0.0299815 -0.0299148 -0.0158701 -0.01582 -0.0128464 -0.0140768 -0.026176 -0.0259897 -0.026176 -0.0259897 -0.0128464 -0.0140768 -0.00107966 0.00673172 -0.0205355 -0.0205046 -0.0205355 -0.0205046 -0.00107966 0.00673172 -0.0927124 -0.125721 -0.118152 -0.119885 -0.119506 -0.119506 -0.119885 -0.118152 -0.125721 -0.0927124 -0.09626 -0.124808 -0.118386 -0.119825 -0.119518 -0.119518 -0.119825 -0.118386 -0.124808 -0.09626 -0.0896261 -0.12637 -0.118018 -0.119912 -0.119502 -0.119502 -0.119912 -0.118018 -0.12637 -0.0896261 -0.0896664 -0.12636 -0.11802 -0.119911 -0.119502 -0.119502 -0.119911 -0.11802 -0.12636 -0.0896664 -0.0871382 -0.126948 -0.117883 -0.119943 -0.119497 -0.119497 -0.119943 -0.117883 -0.126948 -0.0871382 -0.0879858 -0.12673 -0.117939 -0.119928 -0.119499 -0.119499 -0.119928 -0.117939 -0.12673 -0.0879858 -0.0922157 -0.125706 -0.118188 -0.119869 -0.119511 -0.119511 -0.119869 -0.118188 -0.125706 -0.0922157 -0.0872355 -0.126987 -0.117858 -0.119952 -0.119494 -0.119494 -0.119952 -0.117858 -0.126987 -0.0872355 -0.00674804 -0.00796313 -0.0072321 -0.00686014 -0.00642309 -0.00599509 -0.00558054 -0.00508084 -0.00504622 -0.00250533 -0.00955919 -0.00742714 -0.00733405 -0.00684095 -0.00642587 -0.00599908 -0.00555593 -0.00521114 -0.00436157 -0.00609509 -0.00955919 -0.00742714 -0.00733405 -0.00684095 -0.00642587 -0.00599908 -0.00555593 -0.00521114 -0.00436157 -0.00609509 -0.00674804 -0.00796313 -0.0072321 -0.00686014 -0.00642309 -0.00599509 -0.00558054 -0.00508084 -0.00504622 -0.00250533 -0.00194372 -0.00356323 -0.00273919 -0.00237502 -0.00192557 -0.00148883 -0.0010665 -0.000551213 -0.000536057 0.00213378 -0.00543334 -0.00288844 -0.00286941 -0.00235013 -0.00192939 -0.00149313 -0.00103946 -0.00069251 0.000196157 -0.00165285 -0.00543334 -0.00288844 -0.00286941 -0.00235013 -0.00192939 -0.00149313 -0.00103946 -0.00069251 0.000196157 -0.00165285 -0.00194372 -0.00356323 -0.00273919 -0.00237502 -0.00192557 -0.00148883 -0.0010665 -0.000551213 -0.000536057 0.00213378 0.00172682 0.00182551 0.00289795 0.00373399 0.00462678 0.0055085 0.0063817 0.00730326 0.00802195 0.00957847 0.000440099 0.00214298 0.00281969 0.00375306 0.00462303 0.00550554 0.00639815 0.00723544 0.00829715 0.00846298 0.000440099 0.00214298 0.00281969 0.00375306 0.00462303 0.00550554 0.00639815 0.00723544 0.00829715 0.00846298 0.00172682 0.00182551 0.00289795 0.00373399 0.00462678 0.0055085 0.0063817 0.00730326 0.00802195 0.00957847 
</DataArray>
<DataArray Name="Strain_23" format="ascii" type="Float64">
0.00350812 0.0012258 0.0355559 -0.00476878 -0.0355559 0.00476878 -0.00350812 -0.0012258 0.00194396 -0.00190979 0.0122879 -0.0120646 -0.0122879 0.0120646 -0.00194396 0.00190979 0.002811 -0.00113804 0.0143209 -0.00697256 -0.0143209 0.00697256 -0.002811 0.00113804 -0.00209121 -0.00516383 -8.08228e-06 -0.0436277 8.08228e-06 0.0436277 0.00209121 0.00516383 -0.00865956 0.0019686 -0.00044777 0.000102923 -2.83823e-05 2.83823e-05 -0.000102923 0.00044777 -0.0019686 0.00865956 0.00865956 -0.0019686 0.00044777 -0.000102923 2.83823e-05 -2.83823e-05 0.000102923 -0.00044777 0.0019686 -0.00865956 -0.0103308 0.00234853 -0.000534188 0.000122787 -3.386e-05 3.386e-05 -0.000122787 0.000534188 -0.00234853 0.0103308 0.0103308 -0.00234853 0.000534188 -0.000122787 3.386e-05 -3.386e-05 0.000122787 -0.000534188 0.00234853 -0.0103308 -0.0110505 0.00251214 -0.000571403 0.000131341 -3.62189e-05 3.62189e-05 -0.000131341 0.000571403 -0.00251214 0.0110505 0.0110505 -0.00251214 0.000571403 -0.000131341 3.62189e-05 -3.62189e-05 0.000131341 -0.000571403 0.00251214 -0.0110505 -0.0103034 0.0023423 -0.000532771 0.000122461 -3.37702e-05 3.37702e-05 -0.000122461 0.000532771 -0.0023423 0.0103034 0.0103034 -0.0023423 0.000532771 -0.000122461 3.37702e-05 -3.37702e-05 0.000122461 -0.000532771 0.0023423 -0.0103034 0.00792548 -0.00168768 0.000360816 -8.36634e-05 1.96151e-05 -2.79491e-05 9.30343e-05 -0.000439454 0.00203367 -0.00964887 0.00104851 -3.15929e-05 -4.0124e-05 1.53407e-05 -1.08179e-05 4.93726e-06 -1.91339e-05 1.66249e-05 0.000148941 -0.00182254 -0.00104851 3.15929e-05 4.0124e-05 -1.53407e-05 1.08179e-05 -4.93726e-06 1.91339e-05 -1.66249e-05 -0.000148941 0.00182254 -0.00792548 0.00168768 -0.000360816 8.36634e-05 -1.96151e-05 2.79491e-05 -9.30343e-05 0.000439454 -0.00203367 0.00964887 0.00951892 -0.00202957 0.00043779 -9.80085e-05 2.58012e-05 -2.84427e-05 0.000103174 -0.00047066 0.00217631 -0.0102292 0.00180011 -0.000162556 -1.59419e-05 1.42956e-05 -8.35722e-06 6.9232e-06 -1.55678e-05 9.81729e-06 0.000199241 -0.00205646 -0.00180011 0.000162556 1.59419e-05 -1.42956e-05 8.35722e-06 -6.9232e-06 1.55678e-05 -9.81729e-06 -0.000199241 0.00205646 -0.00951892 0.00202957 -0.00043779 9.80085e-05 -2.58012e-05 2.84427e-05 -0.000103174 0.00047066 -0.00217631 0.0102292 0.00619401 -0.00156275 0.000396007 -0.000100668 3.18256e-05 -2.88589e-05 9.35907e-05 -0.000360165 0.00142521 -0.00563334 0.00134829 -0.000296733 6.48053e-05 -1.26842e-05 3.43922e-06 -8.70303e-07 7.6304e-06 -3.68374e-05 0.000189349 -0.000902983 -0.00134829 0.000296733 -6.48053e-05 1.26842e-05 -3.43922e-06 8.70303e-07 -7.6304e-06 3.68374e-05 -0.000189349 0.000902983 -0.00619401 0.00156275 -0.000396007 0.000100668 -3.18256e-05 2.88589e-05 -9.35907e-05 0.000360165 -0.00142521 0.00563334 
</DataArray>
<DataArray Name="Strain_33" format="ascii" type="Float64">
1 1 1 1 1 1 1 1 1 1 1 1 1 1 1 1 1 1 1 1 1 1 1 1 1 1 1 1 1 1 1 1 1 1 1 1 1 1 1 1 1 1 1 1 1 1 1 1 1 1 1 1 1 1 1 1 1 1 1 1 1 1 1 1 1 1 1 1 1 1 1 1 1 1 1 1 1 1 1 1 1 1 1 1 1 1 1 1 1 1 1 1 1 1 1 1 1 1 1 1 1 1 1 1 1 1 1 1 1 1 1 1 1 1 1 1 1 1 1 1 1 1 1 1 1 1 1 1 1 1 1 1 1 1 1 1 1 1 1 1 1 1 1 1 1 1 1 1 1 1 1 1 1 1 1 1 1 1 1 1 1 1 1 1 1 1 1 1 1 1 1 1 1 1 1 1 1 1 1 1 1 1 1 1 1 1 1 1 1 1 1 1 1 1 1 1 1 1 1 1 1 1 1 1 1 1 1 1 1 1 1 1 1 1 1 1 1 1 1 1 1 1 1 1 1 1 1 1 1 1 1 1 
</DataArray>
<DataArray Name="Stress_11" format="ascii" type="Float64">
95.8317 95.8385 98.4535 98.3916 98.4535 98.3916 95.8317 95.8385 94.8884 94.8655 97.3786 97.3585 97.3786 97.3585 94.8884 94.8655 93.834 93.8217 96.3704 96.3369 96.3704 96.3369 93.834 93.8217 91.5844 91.5276 94.5228 94.5646 94.5228 94.5646 91.5844 91.5276 20.7873 21.4065 21.2529 21.2892 21.2814 21.2814 21.2892 21.2529 21.4065 20.7873 20.7892 21.4128 21.258 21.2946 21.2867 21.2867 21.2946 21.258 21.4128 20.7892 20.5044 21.1515 20.9914 21.0291 21.021 21.021 21.0291 20.9914 21.1515 20.5044 20.5097 21.1569 20.9967 21.0344 21.0263 21.0263 21.0344 20.9967 21.1569 20.5097 20.2205 20.8905 20.7246 20.7637 20.7553 20.7553 20.7637 20.7246 20.8905 20.2205 20.225 20.896 20.7298 20.769 20.7606 20.7606 20.769 20.7298 20.896 20.225 19.6518 20.3756 20.1958 20.2383 20.2291 20.2291 20.2383 20.1958 20.3756 19.6518 19.6647 20.3789 20.2016 20.2435 20.2345 20.2345 20.2435 20.2016 20.3789 19.6647 96.0761 96.0394 95.9236 95.8219 95.7179 95.6141 95.5108 95.4043 95.3162 95.1262 96.2141 96.0503 95.9658 95.8669 95.7706 95.6739 95.5768 95.4829 95.3705 95.3601 96.2141 96.0503 95.9658 95.8669 95.7706 95.6739 95.5768 95.4829 95.3705 95.3601 96.0761 96.0394 95.9236 95.8219 95.7179 95.6141 95.5108 95.4043 95.3162 95.1262 94.9834 94.9656 94.8466 94.7462 94.6424 94.5391 94.4363 94.33 94.2438 94.0478 95.215 95.0281 94.9425 94.8382 94.7373 94.6359 94.5339 94.4356 94.3171 94.3084 95.215 95.0281 94.9425 94.8382 94.7373 94.6359 94.5339 94.4356 94.3171 94.3084 94.9834 94.9656 94.8466 94.7462 94.6424 94.5391 94.4363 94.33 94.2438 94.0478 93.9223 93.7654 93.5487 93.3464 93.1406 92.9355 92.731 92.5235 92.3283 92.0818 94.0395 93.7827 93.5857 93.3744 93.1665 92.9579 92.7489 92.5427 92.3242 92.157 94.0395 93.7827 93.5857 93.3744 93.1665 92.9579 92.7489 92.5427 92.3242 92.157 93.9223 93.7654 93.5487 93.3464 93.1406 92.9355 92.731 92.5235 92.3283 92.0818 
</DataArray>
<DataArray Name="Stress_22" format="ascii" type="Float64">
25.403 25.4886 25.405 25.4723 25.405 25.4723 25.403 25.4886 25.1259 25.1201 25.1235 25.1199 25.1235 25.1199 25.1259 25.1201 24.796 24.7581 24.7902 24.7782 24.7902 24.7782 24.796 24.7581 24.1832 24.1071 24.1836 24.1014 24.1836 24.1014 24.1832 24.1071 21.278 21.2776 21.2777 21.2776 21.2777 21.2777 21.2776 21.2777 21.2776 21.278 21.2947 21.2952 21.295 21.2951 21.2951 21.2951 21.2951 21.295 21.2952 21.2947 21.0244 21.0244 21.0244 21.0244 21.0244 21.0244 21.0244 21.0244 21.0244 21.0244 21.0235 21.0235 21.0235 21.0235 21.0235 21.0235 21.0235 21.0235 21.0235 21.0235 20.7525 20.7524 20.7525 20.7525 20.7525 20.7525 20.7525 20.7525 20.7524 20.7525 20.7635 20.7636 20.7636 20.7636 20.7636 20.7636 20.7636 20.7636 20.7636 20.7635 20.2388 20.2397 20.2395 20.2396 20.2396 20.2396 20.2396 20.2395 20.2397 20.2388 20.2291 20.2281 20.2284 20.2283 20.2283 20.2283 20.2283 20.2284 20.2281 20.2291 25.4631 25.398 25.3864 25.3498 25.3214 25.2913 25.2593 25.2359 25.1872 25.1844 25.4543 25.4056 25.3834 25.3508 25.3212 25.2911 25.2604 25.2324 25.1955 25.1789 25.4543 25.4056 25.3834 25.3508 25.3212 25.2911 25.2604 25.2324 25.1955 25.1789 25.4631 25.398 25.3864 25.3498 25.3214 25.2913 25.2593 25.2359 25.1872 25.1844 25.1433 25.0828 25.0707 25.0332 25.0043 24.9735 24.9407 24.917 24.8666 24.8663 25.1372 25.091 25.0673 25.0343 25.004 24.9732 24.9419 24.9133 24.8756 24.8593 25.1372 25.091 25.0673 25.0343 25.004 24.9732 24.9419 24.9133 24.8756 24.8593 25.1433 25.0828 25.0707 25.0332 25.0043 24.9735 24.9407 24.917 24.8666 24.8663 24.8014 24.7228 24.6684 24.6033 24.5419 24.4797 24.4166 24.3574 24.2866 24.2446 24.8025 24.7244 24.6675 24.6036 24.5419 24.4796 24.417 24.3564 24.2888 24.2425 24.8025 24.7244 24.6675 24.6036 24.5419 24.4796 24.417 24.3564 24.2888 24.2425 24.8014 24.7228 24.6684 24.6033 24.5419 24.4797 24.4166 24.3574 24.2866 24.2446 
</DataArray>
<DataArray Name="Stress_12" format="ascii" type="Float64">