<?xml version="1.0"?>
<VTKFile byte_order="LittleEndian" type="UnstructuredGrid" version="0.1">
<UnstructuredGrid>
<Piece NumberOfCells="232" NumberOfPoints="342">
<PointData>
<DataArray Name="Warping_X" format="ascii" type="Float64">
0.0475368 0.0455671 0.046806 0.0434119 0.0443242 0.0446742 0.0441808 0.0462776 0.0455962 -0.0446742 -0.0434119 -0.0441808 -0.0455671 -0.0443242 -0.0475368 -0.046806 -0.0462776 -0.0455962 -0.00461723 -0.00633785 -0.00539433 -0.00495216 -0.0057692 -0.0042824 -0.004469 -0.00444014 -0.00488606 0.0042824 0.00495216 0.004469 0.00633785 0.0057692 0.00461723 0.00539433 0.00444014 0.00488606 -0.0307688 -0.0312165 -0.0309456 -0.0294721 -0.0304136 -0.0291664 -0.0291282 -0.029986 -0.0299692 0.0291664 0.0294721 0.0291282 0.0312165 0.0304136 0.0307688 0.0309456 0.029986 0.0299692 0.0496856 0.0519907 0.0511609 0.04934 0.0509278 0.0477205 0.0487649 0.0485648 0.0501408 -0.0477205 -0.04934 -0.0487649 -0.0519907 -0.0509278 -0.0496856 -0.0511609 -0.0485648 -0.0501408 0.0358325 0.0271358 0.0181761 0.00911898 1.10556e-14 -0.00911898 -0.0181761 -0.0271358 -0.0358325 0.0355555 0.0267588 0.0179605 0.00900492 1.105e-14 -0.00900492 -0.0179605 -0.0267588 -0.0355555 0.035662 0.0269584 0.0180674 0.00906322 1.10611e-14 -0.00906322 -0.0180674 -0.0269584 -0.035662 -0.00381723 -0.00302729 -0.00210752 -0.00107938 -1.53922e-14 0.00107938 0.00210752 0.00302729 0.00381723 -0.00394903 -0.00322003 -0.00221606 -0.00113717 -1.53983e-14 0.00113717 0.00221606 0.00322003 0.00394903 -0.00392134 -0.00311355 -0.00216427 -0.0011076 -1.54027e-14 0.0011076 0.00216427 0.00311355 0.00392134 -0.0256052 -0.0205356 -0.0143205 -0.00735061 -3.41856e-14 0.00735061 0.0143205 0.0205356 0.0256052 -0.0255323 -0.0205525 -0.014317 -0.00735136 -3.41488e-14 0.00735136 0.014317 0.0205525 0.0255323 -0.0256283 -0.0205362 -0.014326 -0.00735202 -3.41836e-14 0.00735202 0.014326 0.0205362 0.0256283 0.0395279 0.0298325 0.0200966 0.0100927 3.41962e-14 -0.0100927 -0.0200966 -0.0298325 -0.0395279 0.0397191 0.0302296 0.0203081 0.0102077 3.42049e-14 -0.0102077 -0.0203081 -0.0302296 -0.0397191 0.0395676 0.0300494 0.0202002 0.0101521 3.42095e-14 -0.0101521 -0.0202002 -0.0300494 -0.0395676 -0.0367274 -0.0283542 -0.0209891 -0.0145544 -0.0090579 -0.00449998 -0.000881226 0.00180876 0.00349793 -0.0340105 -0.026218 -0.0191816 -0.0130839 -0.00788444 -0.0035933 -0.000204198 0.00226387 0.0038962 -0.0354183 -0.027266 -0.0200858 -0.0138138 -0.00846757 -0.00404195 -0.000540336 0.00204477 0.00369386 0.0340105 0.026218 0.0191816 0.0130839 0.00788444 0.0035933 0.000204198 -0.00226387 -0.0038962 0.0367274 0.0283542 0.0209891 0.0145544 0.0090579 0.00449998 0.000881226 -0.00180876 -0.00349793 0.0354183 0.027266 0.0200858 0.0138138 0.00846757 0.00404195 0.000540336 -0.00204477 -0.00369386 0.0128447 0.0187452 0.0236161 0.0275191 0.0304478 0.032402 0.0333812 0.0333957 0.0323692 0.0120719 0.0177107 0.0225161 0.0263471 0.0292356 0.031173 0.0321664 0.0321923 0.0313547 0.012421 0.0182448 0.0230665 0.0269382 0.0298453 0.0317924 0.0327755 0.032805 0.03185 -0.0120719 -0.0177107 -0.0225161 -0.0263471 -0.0292356 -0.031173 -0.0321664 -0.0321923 -0.0313547 -0.0128447 -0.0187452 -0.0236161 -0.0275191 -0.0304478 -0.032402 -0.0333812 -0.0333957 -0.0323692 -0.012421 -0.0182448 -0.0230665 -0.0269382 -0.0298453 -0.0317924 -0.0327755 -0.032805 -0.03185 0.0405932 0.0462843 0.0479937 0.0457885 0.0396537 0.0295935 0.0156024 -0.0022976 -0.0242044 0.0396047 0.0455861 0.0477034 0.0458806 0.0401386 0.0304693 0.0168841 -0.000655428 -0.0220032 0.0400815 0.045946 0.0478506 0.0458393 0.0398998 0.0300365 0.0162439 -0.00146055 -0.0231402 -0.0396047 -0.0455861 -0.0477034 -0.0458806 -0.0401386 -0.0304693 -0.0168841 0.000655428 0.0220032 -0.0405932 -0.0462843 -0.0479937 -0.0457885 -0.0396537 -0.0295935 -0.0156024 0.0022976 0.0242044 -0.0400815 -0.045946 -0.0478506 -0.0458393 -0.0398998 -0.0300365 -0.0162439 0.00146055 0.0231402 
</DataArray>
<DataArray Name="Warping_Y" format="ascii" type="Float64">
-0.0151658 -0.0125712 -0.0137857 -0.0122967 -0.0124528 -0.0158608 -0.0139894 -0.0155116 -0.0138633 -0.0158608 -0.0122967 -0.0139894 -0.0125712 -0.0124528 -0.0151658 -0.0137857 -0.0155116 -0.0138633 0.0178062 0.0168586 0.0174546 0.0172331 0.0170342 0.0175058 0.0174269 0.0176703 0.0174888 0.0175058 0.0172331 0.0174269 0.0168586 0.0170342 0.0178062 0.0174546 0.0176703 0.0174888 -0.00996794 -0.0119681 -0.0109109 -0.0113952 -0.0116835 -0.0101512 -0.0107643 -0.0100529 -0.0108391 -0.0101512 -0.0113952 -0.0107643 -0.0119681 -0.0116835 -0.00996794 -0.0109109 -0.0100529 -0.0108391 0.0123851 0.0146379 0.0133781 0.0154295 0.0150187 0.0116631 0.0134355 0.0120361 0.0133948 0.0116631 0.0154295 0.0134355 0.0146379 0.0150187 0.0123851 0.0133781 0.0120361 0.0133948 -0.0169253 -0.017889 -0.0185641 -0.0189678 -0.0191036 -0.0189678 -0.0185641 -0.017889 -0.0169253 -0.0131699 -0.0140644 -0.0146713 -0.0150383 -0.015161 -0.0150383 -0.0146713 -0.0140644 -0.0131699 -0.0150322 -0.0159801 -0.0166076 -0.0169984 -0.0171254 -0.0169984 -0.0166076 -0.0159801 -0.0150322 0.0170329 0.0166075 0.0163069 0.0161282 0.0160678 0.0161282 0.0163069 0.0166075 0.0170329 0.016745 0.016219 0.0158675 0.0156537 0.0155824 0.0156537 0.0158675 0.016219 0.016745 0.0168951 0.0164116 0.0160924 0.0158933 0.0158286 0.0158933 0.0160924 0.0164116 0.0168951 -0.00977246 -0.0094809 -0.00928032 -0.00915636 -0.00911614 -0.00915636 -0.00928032 -0.0094809 -0.00977246 -0.0116493 -0.0119625 -0.0121672 -0.0122924 -0.0123341 -0.0122924 -0.0121672 -0.0119625 -0.0116493 -0.0107002 -0.0107273 -0.0107217 -0.0107251 -0.0107247 -0.0107251 -0.0107217 -0.0107273 -0.0107002 0.0123948 0.0132769 0.0138614 0.0142157 0.0143346 0.0142157 0.0138614 0.0132769 0.0123948 0.0164805 0.0174884 0.0181921 0.0186113 0.018753 0.0186113 0.0181921 0.0174884 0.0164805 0.0144124 0.015392 0.0160143 0.0164096 0.0165365 0.0164096 0.0160143 0.015392 0.0144124 -0.00656477 -0.000884832 0.00379446 0.00767509 0.0108149 0.0132915 0.0151837 0.0165512 0.0175613 -0.00623085 -0.000651828 0.00395358 0.00775809 0.010821 0.0132215 0.0150356 0.0163337 0.0172385 -0.00640573 -0.000765511 0.00387129 0.00771564 0.0108164 0.0132547 0.0151087 0.0164386 0.0174006 -0.00623085 -0.000651828 0.00395358 0.00775809 0.010821 0.0132215 0.0150356 0.0163337 0.0172385 -0.00656477 -0.000884832 0.00379446 0.00767509 0.0108149 0.0132915 0.0151837 0.0165512 0.0175613 -0.00640573 -0.000765511 0.00387129 0.00771564 0.0108164 0.0132547 0.0151087 0.0164386 0.0174006 0.0144913 0.0123182 0.00980293 0.00711049 0.00428641 0.00139348 -0.00150399 -0.00436325 -0.0070176 0.0149199 0.0126424 0.0100529 0.0072822 0.00437974 0.00140905 -0.00156836 -0.00449706 -0.00726733 0.0146981 0.012482 0.00992521 0.0071951 0.00433147 0.00139936 -0.00153675 -0.00443471 -0.00713859 0.0149199 0.0126424 0.0100529 0.0072822 0.00437974 0.00140905 -0.00156836 -0.00449706 -0.00726733 0.0144913 0.0123182 0.00980293 0.00711049 0.00428641 0.00139348 -0.00150399 -0.00436325 -0.0070176 0.0146981 0.012482 0.00992521 0.0071951 0.00433147 0.00139936 -0.00153675 -0.00443471 -0.00713859 -0.0182296 -0.0223046 -0.0245978 -0.0249969 -0.0235113 -0.0201241 -0.0148152 -0.00760517 0.00166665 -0.0176399 -0.0219157 -0.0243566 -0.024916 -0.0235879 -0.0203583 -0.0152094 -0.0081478 0.000924093 -0.0179394 -0.0221103 -0.0244784 -0.0249564 -0.0235489 -0.02024 -0.0150097 -0.00787521 0.00130056 -0.0176399 -0.0219157 -0.0243566 -0.024916 -0.0235879 -0.0203583 -0.0152094 -0.0081478 0.000924093 -0.0182296 -0.0223046 -0.0245978 -0.0249969 -0.0235113 -0.0201241 -0.0148152 -0.00760517 0.00166665 -0.0179394 -0.0221103 -0.0244784 -0.0249564 -0.0235489 -0.02024 -0.0150097 -0.00787521 0.00130056 
</DataArray>
<DataArray Name="Warping_Z" format="ascii" type="Float64">
0 0 0 0 0 0 0 0 0 0 0 0 0 0 0 0 0 0 0 0 0 0 0 0 0 0 0 0 0 0 0 0 0 0 0 0 0 0 0 0 0 0 0 0 0 0 0 0 0 0 0 0 0 0 0 0 0 0 0 0 0 0 0 0 0 0 0 0 0 0 0 0 0 0 0 0 0 0 0 0 0 0 0 0 0 0 0 0 0 0 0 0 0 0 0 0 0 0 0 0 0 0 0 0 0 0 0 0 0 0 0 0 0 0 0 0 0 0 0 0 0 0 0 0 0 0 0 0 0 0 0 0 0 0 0 0 0 0 0 0 0 0 0 0 0 0 0 0 0 0 0 0 0 0 0 0 0 0 0 0 0 0 0 0 0 0 0 0 0 0 0 0 0 0 0 0 0 0 0 0 0 0 0 0 0 0 0 0 0 0 0 0 0 0 0 0 0 0 0 0 0 0 0 0 0 0 0 0 0 0 0 0 0 0 0 0 0 0 0 0 0 0 0 0 0 0 0 0 0 0 0 0 0 0 0 0 0 0 0 0 0 0 0 0 0 0 0 0 0 0 0 0 0 0 0 0 0 0 0 0 0 0 0 0 0 0 0 0 0 0 0 0 0 0 0 0 0 0 0 0 0 0 0 0 0 0 0 0 0 0 0 0 0 0 0 0 0 0 0 0 0 0 0 0 0 0 0 0 0 0 0 0 0 0 0 0 0 0 0 0 0 0 0 0 0 0 0 0 0 0 0 0 0 0 0 0 0 0 0 0 0 0 
</DataArray>
</PointData>
<CellData>
<DataArray Name="MaterialId" format="ascii" type="Float64">
3 3 3 3 3 3 3 3 3 3 3 3 3 3 3 3 3 3 3 3 3 3 3 3 3 3 3 3 3 3 3 3 1 1 1 1 1 1 1 1 1 1 1 1 1 1 1 1 1 1 1 1 1 1 1 1 1 1 1 1 1 1 1 1 1 1 1 1 1 1 1 1 1 1 1 1 1 1 1 1 1 1 1 1 1 1 1 1 1 1 1 1 1 1 1 1 1 1 1 1 1 1 1 1 1 1 1 1 1 1 1 1 3 3 3 3 3 3 3 3 3 3 3 3 3 3 3 3 3 3 3 3 3 3 3 3 3 3 3 3 3 3 3 3 3 3 3 3 3 3 3 3 3 3 3 3 3 3 3 3 3 3 3 3 3 3 3 3 3 3 3 3 3 3 3 3 3 3 3 3 3 3 3 3 3 3 3 3 3 3 3 3 3 3 3 3 3 3 3 3 3 3 3 3 3 3 3 3 3 3 3 3 3 3 3 3 3 3 3 3 3 3 3 3 3 3 3 3 3 3 3 3 
</DataArray>
<DataArray Name="FiberAngle" format="ascii" type="Float64">
-45 -45 -45 -45 -45 -45 -45 -45 -45 -45 -45 -45 -45 -45 -45 -45 -45 -45 -45 -45 -45 -45 -45 -45 -45 -45 -45 -45 -45 -45 -45 -45 0 0 0 0 0 0 0 0 0 0 0 0 0 0 0 0 0 0 0 0 0 0 0 0 0 0 0 0 0 0 0 0 0 0 0 0 0 0 0 0 0 0 0 0 0 0 0 0 0 0 0 0 0 0 0 0 0 0 0 0 0 0 0 0 0 0 0 0 0 0 0 0 0 0 0 0 0 0 0 0 -45 -45 -45 -45 -45 -45 -45 -45 -45 -45 -45 -45 -45 -45 -45 -45 -45 -45 -45 -45 -45 -45 -45 -45 -45 -45 -45 -45 -45 -45 -45 -45 -45 -45 -45 -45 -45 -45 -45 -45 -45 -45 -45 -45 -45 -45 -45 -45 -45 -45 -45 -45 -45 -45 -45 -45 -45 -45 -45 -45 -45 -45 -45 -45 -45 -45 -45 -45 -45 -45 -45 -45 -45 -45 -45 -45 -45 -45 -45 -45 -45 -45 -45 -45 -45 -45 -45 -45 -45 -45 -45 -45 -45 -45 -45 -45 -45 -45 -45 -45 -45 -45 -45 -45 -45 -45 -45 -45 -45 -45 -45 -45 -45 -45 -45 -45 -45 -45 -45 -45 
</DataArray>
<DataArray Name="Strain_11" format="ascii" type="Float64">
-0.141215 -0.251093 -0.117479 -0.204092 0.117479 0.204092 0.141215 0.251093 -0.122301 -0.182666 -0.0632525 -0.136629 0.0632525 0.136629 0.122301 0.182666 -0.0160026 -0.071527 0.00549379 -0.0788274 -0.00549379 0.0788274 0.0160026 0.071527 0.305121 0.161684 0.262034 0.136221 -0.262034 -0.136221 -0.305121 -0.161684 -0.0875342 -0.0306075 -0.0306492 -0.0165146 -0.00582937 0.00582937 0.0165146 0.0306492 0.0306075 0.0875342 -0.0663956 -0.0347879 -0.0286103 -0.0164491 -0.00557596 0.00557596 0.0164491 0.0286103 0.0347879 0.0663956 -0.0510844 -0.0134173 -0.0158272 -0.00813601 -0.00295701 0.00295701 0.00813601 0.0158272 0.0134173 0.0510844 -0.0290723 -0.0190379 -0.014301 -0.0084969 -0.00282201 0.00282201 0.0084969 0.014301 0.0190379 0.0290723 -0.0247819 0.00797668 -0.000726769 0.000965885 6.59185e-05 -6.59185e-05 -0.000965885 0.000726769 -0.00797668 0.0247819 0.00150292 -0.00236939 -0.000609713 -0.000694566 -0.00014121 0.00014121 0.000694566 0.000609713 0.00236939 -0.00150292 0.0726604 0.0331617 0.0288 0.0163392 0.00555627 -0.00555627 -0.0163392 -0.0288 -0.0331617 -0.0726604 0.108413 0.0256678 0.0320589 0.0163082 0.00594365 -0.00594365 -0.0163082 -0.0320589 -0.0256678 -0.108413 0.389517 0.339253 0.302479 0.263186 0.224376 0.185463 0.146611 0.107514 0.0698177 0.0240952 0.377565 0.351609 0.309472 0.270356 0.230696 0.191139 0.151497 0.112236 0.0710271 0.0396932 -0.377565 -0.351609 -0.309472 -0.270356 -0.230696 -0.191139 -0.151497 -0.112236 -0.0710271 -0.0396932 -0.389517 -0.339253 -0.302479 -0.263186 -0.224376 -0.185463 -0.146611 -0.107514 -0.0698177 -0.0240952 0.286906 0.238805 0.200564 0.160474 0.120741 0.0809275 0.0411769 0.00115535 -0.0373464 -0.0844248 0.274138 0.244257 0.201928 0.161974 0.12158 0.0812766 0.040879 0.00092003 -0.0412827 -0.0721757 -0.274138 -0.244257 -0.201928 -0.161974 -0.12158 -0.0812766 -0.040879 -0.00092003 0.0412827 0.0721757 -0.286906 -0.238805 -0.200564 -0.160474 -0.120741 -0.0809275 -0.0411769 -0.00115535 0.0373464 0.0844248 0.204129 0.122122 0.0414628 -0.0395259 -0.120429 -0.201367 -0.282245 -0.36334 -0.443581 -0.527236 0.196337 0.119129 0.0372574 -0.043468 -0.124478 -0.205397 -0.286429 -0.367056 -0.449344 -0.524804 -0.196337 -0.119129 -0.0372574 0.043468 0.124478 0.205397 0.286429 0.367056 0.449344 0.524804 -0.204129 -0.122122 -0.0414628 0.0395259 0.120429 0.201367 0.282245 0.36334 0.443581 0.527236 
</DataArray>
<DataArray Name="Strain_22" format="ascii" type="Float64">
-0.0423384 0.0040846 -0.0475325 0.00299278 0.0475325 -0.00299278 0.0423384 -0.0040846 -0.010164 0.0209856 -0.0226412 0.0136939 0.0226412 -0.0136939 0.010164 -0.0209856 -0.00131669 0.0356453 -0.00235724 0.0363059 0.00235724 -0.0363059 0.00131669 -0.0356453 -0.0332391 0.0397474 -0.0332193 0.0451542 0.0332193 -0.0451542 0.0332391 -0.0397474 -0.0416514 -0.0400528 -0.0268362 -0.0164714 -0.00542944 0.00542944 0.0164714 0.0268362 0.0400528 0.0416514 -0.045812 -0.0415563 -0.0283189 -0.0172696 -0.00571321 0.00571321 0.0172696 0.0283189 0.0415563 0.045812 -0.0221719 -0.021945 -0.0145795 -0.00897896 -0.00295383 0.00295383 0.00897896 0.0145795 0.021945 0.0221719 -0.0218412 -0.0197596 -0.013473 -0.00821356 -0.00271833 0.00271833 0.00821356 0.013473 0.0197596 0.0218412 -0.00412962 -0.00739969 -0.00432734 -0.00279587 -0.000898512 0.000898512 0.00279587 0.00432734 0.00739969 0.00412962 0.00962831 0.00574816 0.00448309 0.00262102 0.000881662 -0.000881662 -0.00262102 -0.00448309 -0.00574816 -0.00962831 0.0440851 0.0432066 0.0288252 0.0177067 0.00583916 -0.00583916 -0.0177067 -0.0288252 -0.0432066 -0.0440851 0.0371423 0.0404716 0.0262354 0.0162967 0.00534094 -0.00534094 -0.0162967 -0.0262354 -0.0404716 -0.0371423 -0.0330934 -0.0288565 -0.0195972 -0.012474 -0.00470388 0.00285984 0.0106296 0.0178023 0.0266991 0.0326524 -0.0277454 -0.0278361 -0.0196151 -0.0117386 -0.00420274 0.0035349 0.0111838 0.0187589 0.0273226 0.0296571 0.0277454 0.0278361 0.0196151 0.0117386 0.00420274 -0.0035349 -0.0111838 -0.0187589 -0.0273226 -0.0296571 0.0330934 0.0288565 0.0195972 0.012474 0.00470388 -0.00285984 -0.0106296 -0.0178023 -0.0266991 -0.0326524 -0.042074 -0.0382298 -0.0288195 -0.0214833 -0.013537 -0.00579576 0.00219238 0.00939672 0.0191094 0.0227054 -0.0382351 -0.0370574 -0.0286079 -0.0206892 -0.0129676 -0.00509421 0.00268804 0.0104218 0.0192446 0.0205951 0.0382351 0.0370574 0.0286079 0.0206892 0.0129676 0.00509421 -0.00268804 -0.0104218 -0.0192446 -0.0205951 0.042074 0.0382298 0.0288195 0.0214833 0.013537 0.00579576 -0.00219238 -0.00939672 -0.0191094 -0.0227054 -0.0587784 -0.0494071 -0.03164 -0.0162134 -0.000136591 0.0157217 0.0318002 0.047234 0.0649052 0.0749415 -0.0574865 -0.048447 -0.0313696 -0.0159972 -0.000291582 0.015361 0.0310468 0.0464522 0.0636124 0.0715123 0.0574865 0.048447 0.0313696 0.0159972 0.000291582 -0.015361 -0.0310468 -0.0464522 -0.0636124 -0.0715123 0.0587784 0.0494071 0.03164 0.0162134 0.000136591 -0.0157217 -0.0318002 -0.047234 -0.0649052 -0.0749415 
</DataArray>
<DataArray Name="Strain_12" format="ascii" type="Float64">
0.0559395 0.0172331 0.0500993 0.07754 0.0500993 0.07754 0.0559395 0.0172331 0.0152316 0.00263088 0.0314439 0.0585677 0.0314439 0.0585677 0.0152316 0.00263088 0.0030239 -0.0122318 0.0261187 0.0307186 0.0261187 0.0307186 0.0030239 -0.0122318 0.0210788 0.0800669 0.0910831 0.0654163 0.0910831 0.0654163 0.0210788 0.0800669 -0.000484546 -0.00264302 0.000649373 -0.000785371 -0.000333507 -0.000333507 -0.000785371 0.000649373 -0.00264302 -0.000484546 -0.00094599 0.00194499 -0.0015139 -4.13994e-05 -0.000501424 -0.000501424 -4.13994e-05 -0.0015139 0.00194499 -0.00094599 -0.000680796 -0.000863707 0.000719049 -2.06436e-05 0.00021808 0.00021808 -2.06436e-05 0.000719049 -0.000863707 -0.000680796 0.000345914 0.00136594 -0.000407088 0.000375749 0.000127699 0.000127699 0.000375749 -0.000407088 0.00136594 0.000345914 0.00374134 0.000530306 0.00248917 0.00175027 0.00196939 0.00196939 0.00175027 0.00248917 0.000530306 0.00374134 -0.000581518 0.00348904 0.00133482 0.00211802 0.00188932 0.00188932 0.00211802 0.00133482 0.00348904 -0.000581518 -0.0028836 0.00324355 -0.00238331 -7.2847e-05 -0.000784351 -0.000784351 -7.2847e-05 -0.00238331 0.00324355 -0.0028836 0.000964316 -0.00441354 0.00104301 -0.00122884 -0.000525682 -0.000525682 -0.00122884 0.00104301 -0.00441354 0.000964316 0.0257054 -0.00687329 0.00142647 -0.000670413 -0.000163796 -0.000225981 -0.000434113 0.000392163 -0.00242524 0.00696446 0.00126053 0.00112605 -0.000934949 -2.48035e-05 -0.000310764 -0.00026554 -0.000185159 -0.000298015 -0.00123548 0.00906427 0.00126053 0.00112605 -0.000934949 -2.48035e-05 -0.000310764 -0.00026554 -0.000185159 -0.000298015 -0.00123548 0.00906427 0.0257054 -0.00687329 0.00142647 -0.000670413 -0.000163796 -0.000225981 -0.000434113 0.000392163 -0.00242524 0.00696446 0.0197504 -0.00530436 0.00123291 -0.000452078 -4.45345e-05 -6.57268e-05 -0.000358647 0.000784606 -0.00324774 0.0106856 0.00125378 0.000974001 -0.000666109 7.49859e-05 -0.000156583 -0.000139171 -1.82089e-06 -0.000303465 -0.000639303 0.00802755 0.00125378 0.000974001 -0.000666109 7.49859e-05 -0.000156583 -0.000139171 -1.82089e-06 -0.000303465 -0.000639303 0.00802755 0.0197504 -0.00530436 0.00123291 -0.000452078 -4.45345e-05 -6.57268e-05 -0.000358647 0.000784606 -0.00324774 0.0106856 0.0129589 -0.00340923 0.00112545 -0.000113496 0.000188242 0.000246643 -0.000296366 0.00182074 -0.0060863 0.0232562 0.00241038 -1.46496e-05 8.35512e-05 0.000186929 0.00013776 0.000128157 0.000208739 3.19794e-05 5.60336e-05 0.00267323 0.00241038 -1.46496e-05 8.35512e-05 0.000186929 0.00013776 0.000128157 0.000208739 3.19794e-05 5.60336e-05 0.00267323 0.0129589 -0.00340923 0.00112545 -0.000113496 0.000188242 0.000246643 -0.000296366 0.00182074 -0.0060863 0.0232562 
</DataArray>
<DataArray Name="Strain_13" format="ascii" type="Float64">
-0.0566416 -0.299503 -0.108475 -0.427857 0.108475 0.427857 0.0566416 0.299503 -0.197056 -0.317711 -0.0642135 -0.364338 0.0642135 0.364338 0.197056 0.317711 -0.118718 -0.229443 -0.0194335 -0.375104 0.0194335 0.375104 0.118718 0.229443 0.269517 -0.0318265 0.552424 0.0626621 -0.552424 -0.0626621 -0.269517 0.0318265 -0.2395 0.000686353 -0.0414609 -0.0159671 -0.00694446 0.00694446 0.0159671 0.0414609 -0.000686353 0.2395 -0.0950169 -0.0364697 -0.0318952 -0.0184665 -0.00614968 0.00614968 0.0184665 0.0318952 0.0364697 0.0950169 -0.19161 -0.00967502 -0.039213 -0.0164366 -0.00682163 0.00682163 0.0164366 0.039213 0.00967502 0.19161 -0.0138027 -0.0554033 -0.0274401 -0.0195127 -0.0058435 0.0058435 0.0195127 0.0274401 0.0554033 0.0138027 -0.226734 -0.00109998 -0.0414099 -0.0159276 -0.00699796 0.00699796 0.0159276 0.0414099 0.00109998 0.226734 -0.00306419 -0.058625 -0.0265998 -0.0197973 -0.00576756 0.00576756 0.0197973 0.0265998 0.058625 0.00306419 0.0269641 -0.0580465 -0.0282955 -0.0187537 -0.00615626 0.00615626 0.0187537 0.0282955 0.0580465 -0.0269641 0.275705 -0.122019 -0.0118256 -0.0230569 -0.004788 0.004788 0.0230569 0.0118256 0.122019 -0.275705 0.721611 0.586812 0.517534 0.435768 0.356397 0.276519 0.196991 0.116059 0.0424911 -0.0700866 0.649892 0.625719 0.534097 0.455322 0.374107 0.2934 0.212327 0.132755 0.0454255 -0.00156464 -0.649892 -0.625719 -0.534097 -0.455322 -0.374107 -0.2934 -0.212327 -0.132755 -0.0454255 0.00156464 -0.721611 -0.586812 -0.517534 -0.435768 -0.356397 -0.276519 -0.196991 -0.116059 -0.0424911 0.0700866 0.628669 0.505703 0.43238 0.349479 0.268441 0.186984 0.105906 0.0232005 -0.0510704 -0.169378 0.566339 0.526816 0.435795 0.354729 0.27174 0.189178 0.106214 0.024997 -0.0651729 -0.109343 -0.566339 -0.526816 -0.435795 -0.354729 -0.27174 -0.189178 -0.106214 -0.024997 0.0651729 0.109343 -0.628669 -0.505703 -0.43238 -0.349479 -0.268441 -0.186984 -0.105906 -0.0232005 0.0510704 0.169378 0.593594 0.412116 0.251283 0.0853503 -0.0792921 -0.24438 -0.408846 -0.575533 -0.733311 -0.927135 0.557826 0.409679 0.238518 0.0730392 -0.0938713 -0.260297 -0.427381 -0.592112 -0.766326 -0.902059 -0.557826 -0.409679 -0.238518 -0.0730392 0.0938713 0.260297 0.427381 0.592112 0.766326 0.902059 -0.593594 -0.412116 -0.251283 -0.0853503 0.0792921 0.24438 0.408846 0.575533 0.733311 0.927135 
</DataArray>
<DataArray Name="Strain_23" format="ascii" type="Float64">
-1.03136 -1.07256 -0.418676 -0.610371 -0.418676 -0.610371 -1.03136 -1.07256 -1.29694 -1.28529 -0.972303 -0.92459 -0.972303 -0.92459 -1.29694 -1.28529 -1.42697 -1.43508 -1.06164 -1.09482 -1.06164 -1.09482 -1.42697 -1.43508 -1.56887 -1.50117 -1.01049 -0.655958 -1.01049 -0.655958 -1.56887 -1.50117 0.871415 0.929764 1.01971 1.07008 1.09701 1.09701 1.07008 1.01971 0.929764 0.871415 0.818647 0.972197 1.04108 1.09662 1.12264 1.12264 1.09662 1.04108 0.972197 0.818647 0.509604 0.595425 0.679258 0.731099 0.757756 0.757756 0.731099 0.679258 0.595425 0.509604 0.488071 0.614141 0.689145 0.743208 0.769501 0.769501 0.743208 0.689145 0.614141 0.488071 0.694792 0.775026 0.859681 0.91103 0.93763 0.93763 0.91103 0.859681 0.775026 0.694792 0.649627 0.781278 0.85546 0.910015 0.936366 0.936366 0.910015 0.85546 0.781278 0.649627 1.2454 1.44002 1.50033 1.55834 1.58411 1.58411 1.55834 1.50033 1.44002 1.2454 1.36104 1.37832 1.47684 1.52474 1.55192 1.55192 1.52474 1.47684 1.37832 1.36104 -1.07855 -1.35328 -1.31129 -1.33545 -1.34565 -1.35849 -1.37247 -1.37819 -1.42361 -1.27836 -1.21265 -1.3203 -1.31942 -1.33345 -1.34607 -1.35866 -1.3713 -1.38308 -1.40357 -1.36074 -1.21265 -1.3203 -1.31942 -1.33345 -1.34607 -1.35866 -1.3713 -1.38308 -1.40357 -1.36074 -1.07855 -1.35328 -1.31129 -1.33545 -1.34565 -1.35849 -1.37247 -1.37819 -1.42361 -1.27836 -1.2573 -1.47598 -1.44545 -1.46761 -1.47856 -1.49151 -1.50606 -1.5108 -1.562 -1.3926 -1.36648 -1.44906 -1.4521 -1.46598 -1.47889 -1.49176 -1.50466 -1.51656 -1.53854 -1.48841 -1.36648 -1.44906 -1.4521 -1.46598 -1.47889 -1.49176 -1.50466 -1.51656 -1.53854 -1.48841 -1.2573 -1.47598 -1.44545 -1.46761 -1.47856 -1.49151 -1.50606 -1.5108 -1.562 -1.3926 -1.44806 -1.62427 -1.61254 -1.64803 -1.67193 -1.69756 -1.72747 -1.7376 -1.827 -1.60108 -1.52318 -1.60456 -1.61771 -1.64672 -1.67214 -1.69805 -1.72529 -1.74596 -1.79511 -1.72254 -1.52318 -1.60456 -1.61771 -1.64672 -1.67214 -1.69805 -1.72529 -1.74596 -1.79511 -1.72254 -1.44806 -1.62427 -1.61254 -1.64803 -1.67193 -1.69756 -1.72747 -1.7376 -1.827 -1.60108 
</DataArray>
<DataArray Name="Strain_33" format="ascii" type="Float64">
0.255328 0.252525 0.243936 0.242333 -0.243936 -0.242333 -0.255328 -0.252525 0.106844 0.104395 0.10214 0.10049 -0.10214 -0.10049 -0.106844 -0.104395 -0.0440185 -0.0463655 -0.0426048 -0.0442582 0.0426048 0.0442582 0.0440185 0.0463655 -0.344572 -0.347299 -0.330515 -0.332118 0.330515 0.332118 0.344572 0.347299 0.214445 0.167442 0.119463 0.0717054 0.0238971 -0.0238971 -0.0717054 -0.119463 -0.167442 -0.214445 0.213188 0.165162 0.118111 0.070839 0.0236177 -0.0236177 -0.070839 -0.118111 -0.165162 -0.213188 0.0897811 0.0705742 0.0502516 0.0301827 0.0100555 -0.0100555 -0.0301827 -0.0502516 -0.0705742 -0.0897811 0.0887096 0.0682518 0.0489099 0.0293141 0.00977674 -0.00977674 -0.0293141 -0.0489099 -0.0682518 -0.0887096 -0.0378119 -0.0286448 -0.0206234 -0.0123414 -0.00411931 0.00411931 0.0123414 0.0206234 0.0286448 0.0378119 -0.0388437 -0.0309762 -0.0219631 -0.0132105 -0.00439798 0.00439798 0.0132105 0.0219631 0.0309762 0.0388437 -0.290812 -0.225521 -0.161228 -0.0967085 -0.032241 0.032241 0.0967085 0.161228 0.225521 0.290812 -0.292039 -0.227808 -0.162578 -0.0975753 -0.0325203 0.0325203 0.0975753 0.162578 0.227808 0.292039 -0.234475 -0.220548 -0.206777 -0.192977 -0.179182 -0.165385 -0.151591 -0.137789 -0.124024 -0.110065 -0.244181 -0.229944 -0.215542 -0.201172 -0.186795 -0.17242 -0.158044 -0.143674 -0.129267 -0.115055 0.244181 0.229944 0.215542 0.201172 0.186795 0.17242 0.158044 0.143674 0.129267 0.115055 0.234475 0.220548 0.206777 0.192977 0.179182 0.165385 0.151591 0.137789 0.124024 0.110065 -0.0924313 -0.0781955 -0.0641496 -0.0500679 -0.0359929 -0.0219163 -0.00784144 0.00624082 0.0202846 0.0345298 -0.096043 -0.0815393 -0.0668387 -0.0521771 -0.0375077 -0.0228401 -0.00817068 0.00649099 0.0211916 0.0356941 0.096043 0.0815393 0.0668387 0.0521771 0.0375077 0.0228401 0.00817068 -0.00649099 -0.0211916 -0.0356941 0.0924313 0.0781955 0.0641496 0.0500679 0.0359929 0.0219163 0.00784144 -0.00624082 -0.0202846 -0.0345298 0.0594256 0.08795 0.116354 0.144787 0.173213 0.201641 0.230067 0.258499 0.286908 0.315409 0.0621787 0.0916904 0.121342 0.150959 0.180584 0.210207 0.239832 0.26945 0.299098 0.328624 -0.0621787 -0.0916904 -0.121342 -0.150959 -0.180584 -0.210207 -0.239832 -0.26945 -0.299098 -0.328624 -0.0594256 -0.08795 -0.116354 -0.144787 -0.173213 -0.201641 -0.230067 -0.258499 -0.286908 -0.315409 
</DataArray>
<DataArray Name="Stress_11" format="ascii" type="Float64">
-0.529498 -2.78397 8.2022 18.5156 -8.2022 -18.5156 0.529498 2.78397 1.05769 -1.24622 1.78499 12.9417 -1.78499 -12.9417 -1.05769 1.24622 2.06729 0.193227 -1.80146 11.9164 1.80146 -11.9164 -2.06729 -0.193227 6.75978 2.91865 -27.1978 -9.63597 27.1978 9.63597 -6.75978 -2.91865 -4.9262 0.137759 -0.832508 -0.300682 -0.134717 0.134717 0.300682 0.832508 -0.137759 4.9262 -2.72795 -0.431842 -0.684688 -0.339643 -0.122204 0.122204 0.339643 0.684688 0.431842 2.72795 -3.79801 -0.140001 -0.767683 -0.315007 -0.131287 0.131287 0.315007 0.767683 0.140001 3.79801 -1.3728 -0.768315 -0.604649 -0.357973 -0.117489 0.117489 0.357973 0.604649 0.768315 1.3728 -3.91858 -0.114938 -0.773828 -0.313159 -0.13206 0.13206 0.313159 0.773828 0.114938 3.91858 -0.644548 -0.964045 -0.5533 -0.371325 -0.113366 0.113366 0.371325 0.5533 0.964045 0.644548 1.21985 -1.37966 -0.47786 -0.379033 -0.116021 0.116021 0.379033 0.47786 1.37966 -1.21985 4.9654 -2.35181 -0.2252 -0.445715 -0.0945768 0.0945768 0.445715 0.2252 2.35181 -4.9654 -2.25966 -0.0250144 -0.434365 -0.367377 -0.383951 -0.385262 -0.397251 -0.358366 -0.606765 0.733246 0.548842 -1.6921 -1.28922 -1.36262 -1.35248 -1.35759 -1.35203 -1.39734 -1.15539 -2.50177 -0.548842 1.6921 1.28922 1.36262 1.35248 1.35759 1.35203 1.39734 1.15539 2.50177 2.25966 0.0250144 0.434365 0.367377 0.383951 0.385262 0.397251 0.358366 0.606765 -0.733246 -2.08395 -0.396126 -0.744224 -0.720582 -0.763171 -0.792987 -0.834501 -0.817201 -1.13006 0.366465 0.31619 -1.37455 -1.02952 -1.05617 -1.01662 -0.989826 -0.951342 -0.971665 -0.661849 -2.16139 -0.31619 1.37455 1.02952 1.05617 1.01662 0.989826 0.951342 0.971665 0.661849 2.16139 2.08395 0.396126 0.744224 0.720582 0.763171 0.792987 0.834501 0.817201 1.13006 -0.366465 -1.70891 -0.806641 -1.18875 -1.26183 -1.41059 -1.53438 -1.69307 -1.72246 -2.28647 -0.630876 0.0680176 -0.830121 -0.444159 -0.367152 -0.214483 -0.0867885 0.0758099 0.109131 0.676969 -0.974384 -0.0680176 0.830121 0.444159 0.367152 0.214483 0.0867885 -0.0758099 -0.109131 -0.676969 0.974384 1.70891 0.806641 1.18875 1.26183 1.41059 1.53438 1.69307 1.72246 2.28647 0.630876 
</DataArray>
<DataArray Name="Stress_22" format="ascii" type="Float64">
-1.81869 -0.0032413 -2.18501 0.837618 2.18501 -0.837618 1.81869 0.0032413 -2.23213 -0.502277 -1.78119 -0.133685 1.78119 0.133685 2.23213 0.502277 -2.41693 0.257931 -1.59065 -0.114484 1.59065 0.114484 2.41693 -0.257931 -5.1416 -1.09073 -5.55975 -0.544121 5.55975 0.544121 5.1416 1.09073 -1.10263 -0.64935 -0.514756 -0.297078 -0.10139 0.10139 0.297078 0.514756 0.64935 1.10263 -1.01265 -0.995871 -0.660401 -0.408016 -0.133642 0.133642 0.408016 0.660401 0.995871 1.01265 -1.38864 -0.850638 -0.663711 -0.385254 -0.131022 0.131022 0.385254 0.663711 0.850638 1.38864 -0.770207 -0.828462 -0.535647 -0.334361 -0.10885 0.10885 0.334361 0.535647 0.828462 0.770207 -2.19756 -1.3963 -1.07388 -0.626639 -0.212429 0.212429 0.626639 1.07388 1.3963 2.19756 0.0325675 -0.287583 -0.1289 -0.0950263 -0.0281262 0.0281262 0.0950263 0.1289 0.287583 -0.0325675 -1.16143 -0.542584 -0.475759 -0.265072 -0.092447 0.092447 0.265072 0.475759 0.542584 1.16143 -0.973815 -1.11816 -0.710488 -0.446677 -0.144802 0.144802 0.446677 0.710488 1.11816 0.973815 2.28318 1.35508 1.65878 1.57531 1.59708 1.58748 1.60751 1.53874 1.75551 1.24859 2.11589 1.66378 1.6294 1.67528 1.65382 1.66316 1.65739 1.65741 1.70749 1.34665 -2.11589 -1.66378 -1.6294 -1.67528 -1.65382 -1.66316 -1.65739 -1.65741 -1.70749 -1.34665 -2.28318 -1.35508 -1.65878 -1.57531 -1.59708 -1.58748 -1.60751 -1.53874 -1.75551 -1.24859 2.24996 1.37656 1.65207 1.57695 1.59691 1.58666 1.61146 1.52177 1.82615 0.964008 2.08071 1.64177 1.64198 1.67056 1.65515 1.66339 1.65583 1.65979 1.71469 1.25526 -2.08071 -1.64177 -1.64198 -1.67056 -1.65515 -1.66339 -1.65583 -1.65979 -1.71469 -1.25526 -2.24996 -1.37656 -1.65207 -1.57695 -1.59691 -1.58666 -1.61146 -1.52177 -1.82615 -0.964008 2.31432 1.39123 1.64721 1.57718 1.59731 1.58689 1.60845 1.5343 1.79791 0.881581 2.24432 1.53704 1.68387 1.65617 1.65999 1.66076 1.66093 1.64231 1.77992 1.00704 -2.24432 -1.53704 -1.68387 -1.65617 -1.65999 -1.66076 -1.66093 -1.64231 -1.77992 -1.00704 -2.31432 -1.39123 -1.64721 -1.57718 -1.59731 -1.58689 -1.60845 -1.5343 -1.79791 -0.881581 
</DataArray>
<DataArray Name="Stress_12" format="ascii" type="Float64">