<?xml version="1.0"?>
<VTKFile byte_order="LittleEndian" type="UnstructuredGrid" version="0.1">
<UnstructuredGrid>
<Piece NumberOfCells="232" NumberOfPoints="342">
<PointData>
<DataArray Name="Warping_X" format="ascii" type="Float64">
-0.350704 -0.343374 -0.34716 -0.317827 -0.330503 -0.323907 -0.320859 -0.33768 -0.334118 0.323907 0.317827 0.320859 0.343374 0.330503 0.350704 0.34716 0.33768 0.334118 -0.18042 -0.1724 -0.176426 -0.160046 -0.166129 -0.166026 -0.163034 -0.173322 -0.169727 0.166026 0.160046 0.163034 0.1724 0.166129 0.18042 0.176426 0.173322 0.169727 -0.00476089 0.00361082 -0.000652532 -0.000416525 0.00164366 -0.00625887 -0.00332619 -0.00559392 -0.00198259 0.00625887 0.000416525 0.00332619 -0.00361082 -0.00164366 0.00476089 0.000652532 0.00559392 0.00198259 0.336581 0.344192 0.340597 0.321392 0.33319 0.31545 0.318401 0.325973 0.329626 -0.31545 -0.321392 -0.318401 -0.344192 -0.33319 -0.336581 -0.340597 -0.325973 -0.329626 -0.260471 -0.196699 -0.131663 -0.0660068 3.54011e-13 0.0660068 0.131663 0.196699 0.260471 -0.256952 -0.193746 -0.129761 -0.0650441 3.53945e-13 0.0650441 0.129761 0.193746 0.256952 -0.258724 -0.195227 -0.130716 -0.0655274 3.5412e-13 0.0655274 0.130716 0.195227 0.258724 -0.133322 -0.100796 -0.0674792 -0.0338391 -4.9398e-14 0.0338391 0.0674792 0.100796 0.133322 -0.129779 -0.0978486 -0.0655763 -0.0328767 -4.94946e-14 0.0328767 0.0655763 0.0978486 0.129779 -0.131557 -0.099325 -0.0665301 -0.033359 -4.94948e-14 0.033359 0.0665301 0.099325 0.131557 -0.00871669 -0.00917265 -0.00727569 -0.00400021 -3.43439e-13 0.00400021 0.00727569 0.00917265 0.00871669 -0.00514189 -0.00623217 -0.0053714 -0.003038 -3.4325e-13 0.003038 0.0053714 0.00623217 0.00514189 -0.00695464 -0.00771286 -0.00633255 -0.00352319 -3.43495e-13 0.00352319 0.00633255 0.00771286 0.00695464 0.260364 0.199482 0.135085 0.0681576 -4.5929e-15 -0.0681576 -0.135085 -0.199482 -0.260364 0.263911 0.20243 0.136987 0.0691202 -4.76996e-15 -0.0691202 -0.136987 -0.20243 -0.263911 0.262181 0.200974 0.136052 0.068646 -4.67604e-15 -0.068646 -0.136052 -0.200974 -0.262181 0.3269 0.310683 0.29442 0.278164 0.261907 0.24565 0.229395 0.213131 0.196919 0.302706 0.287494 0.272301 0.257104 0.241907 0.226711 0.211513 0.196322 0.181102 0.314816 0.299089 0.28336 0.267634 0.251907 0.236181 0.220455 0.204727 0.188996 -0.302706 -0.287494 -0.272301 -0.257104 -0.241907 -0.226711 -0.211513 -0.196322 -0.181102 -0.3269 -0.310683 -0.29442 -0.278164 -0.261907 -0.24565 -0.229395 -0.213131 -0.196919 -0.314816 -0.299089 -0.28336 -0.267634 -0.251907 -0.236181 -0.220455 -0.204727 -0.188996 0.155435 0.138755 0.122023 0.1053 0.0885757 0.0718512 0.0551281 0.038396 0.0217153 0.144758 0.129335 0.113941 0.0985395 0.0831399 0.0677403 0.0523391 0.036945 0.0215177 0.150109 0.134045 0.117981 0.10192 0.0858578 0.0697956 0.0537339 0.0376717 0.0216032 -0.144758 -0.129335 -0.113941 -0.0985395 -0.0831399 -0.0677403 -0.0523391 -0.036945 -0.0215177 -0.155435 -0.138755 -0.122023 -0.1053 -0.0885757 -0.0718512 -0.0551281 -0.038396 -0.0217153 -0.150109 -0.134045 -0.117981 -0.10192 -0.0858578 -0.0697956 -0.0537339 -0.0376717 -0.0216032 -0.0370189 -0.0702625 -0.103546 -0.13682 -0.170096 -0.203372 -0.236647 -0.26993 -0.303174 -0.0311529 -0.0627445 -0.0943304 -0.125918 -0.157505 -0.189092 -0.220679 -0.252266 -0.283851 -0.0340766 -0.0665051 -0.098938 -0.131369 -0.163801 -0.196232 -0.228663 -0.261097 -0.29352 0.0311529 0.0627445 0.0943304 0.125918 0.157505 0.189092 0.220679 0.252266 0.283851 0.0370189 0.0702625 0.103546 0.13682 0.170096 0.203372 0.236647 0.26993 0.303174 0.0340766 0.0665051 0.098938 0.131369 0.163801 0.196232 0.228663 0.261097 0.29352 
</DataArray>
<DataArray Name="Warping_Y" format="ascii" type="Float64">
0.34925 0.322954 0.336091 0.327734 0.325405 0.354408 0.340815 0.351872 0.338457 0.354408 0.327734 0.340815 0.322954 0.325405 0.34925 0.336091 0.351872 0.338457 -0.147036 -0.160492 -0.153935 -0.155685 -0.15804 -0.14219 -0.149177 -0.144572 -0.151586 -0.14219 -0.155685 -0.149177 -0.160492 -0.15804 -0.147036 -0.153935 -0.144572 -0.151586 -0.290972 -0.288579 -0.289973 -0.283782 -0.286116 -0.286081 -0.28519 -0.288501 -0.287644 -0.286081 -0.283782 -0.28519 -0.288579 -0.286116 -0.290972 -0.289973 -0.288501 -0.287644 0.322111 0.344573 0.33336 0.350053 0.347258 0.326864 0.33814 0.324564 0.335727 0.326864 0.350053 0.33814 0.344573 0.347258 0.322111 0.33336 0.324564 0.335727 0.364287 0.372328 0.378021 0.38144 0.382581 0.38144 0.378021 0.372328 0.364287 0.336958 0.344482 0.349807 0.353006 0.354073 0.353006 0.349807 0.344482 0.336958 0.350566 0.358367 0.363855 0.367173 0.368274 0.367173 0.363855 0.358367 0.350566 -0.132427 -0.124506 -0.118894 -0.115524 -0.114399 -0.115524 -0.118894 -0.124506 -0.132427 -0.146286 -0.138652 -0.133244 -0.129997 -0.128913 -0.129997 -0.133244 -0.138652 -0.146286 -0.139413 -0.131618 -0.126127 -0.12281 -0.12171 -0.12281 -0.126127 -0.131618 -0.139413 -0.275793 -0.26747 -0.261573 -0.258031 -0.25685 -0.258031 -0.261573 -0.26747 -0.275793 -0.274877 -0.267644 -0.262523 -0.259446 -0.25842 -0.259446 -0.262523 -0.267644 -0.274877 -0.275381 -0.2676 -0.262105 -0.258789 -0.257688 -0.258789 -0.262105 -0.2676 -0.275381 0.335203 0.342045 0.346879 0.349784 0.350753 0.349784 0.346879 0.342045 0.335203 0.360796 0.369532 0.375712 0.379427 0.380665 0.379427 0.375712 0.369532 0.360796 0.347963 0.355745 0.361239 0.364555 0.365656 0.364555 0.361239 0.355745 0.347963 0.264543 0.208869 0.155632 0.104898 0.0566521 0.0108985 -0.0323664 -0.0731288 -0.111454 0.269458 0.21374 0.160515 0.109778 0.061533 0.0157787 -0.0274838 -0.0682544 -0.106554 0.26705 0.211361 0.158127 0.107392 0.0591467 0.013393 -0.0298713 -0.0706363 -0.10895 0.269458 0.21374 0.160515 0.109778 0.061533 0.0157787 -0.0274838 -0.0682544 -0.106554 0.264543 0.208869 0.155632 0.104898 0.0566521 0.0108985 -0.0323664 -0.0731288 -0.111454 0.26705 0.211361 0.158127 0.107392 0.0591467 0.013393 -0.0298713 -0.0706363 -0.10895 -0.188061 -0.212185 -0.233188 -0.251 -0.265636 -0.277092 -0.285371 -0.290462 -0.292423 -0.183153 -0.207313 -0.228305 -0.24612 -0.260755 -0.272211 -0.28049 -0.285585 -0.287535 -0.185559 -0.209696 -0.230696 -0.248509 -0.263144 -0.2746 -0.28288 -0.287972 -0.289925 -0.183153 -0.207313 -0.228305 -0.24612 -0.260755 -0.272211 -0.28049 -0.285585 -0.287535 -0.188061 -0.212185 -0.233188 -0.251 -0.265636 -0.277092 -0.285371 -0.290462 -0.292423 -0.185559 -0.209696 -0.230696 -0.248509 -0.263144 -0.2746 -0.28288 -0.287972 -0.289925 -0.264489 -0.232056 -0.191471 -0.142686 -0.085713 -0.0205483 0.0528042 0.134357 0.224061 -0.259583 -0.227181 -0.186587 -0.137805 -0.0808307 -0.015667 0.0576886 0.13923 0.228978 -0.261982 -0.22956 -0.188972 -0.140188 -0.0832144 -0.01805 0.0553034 0.136853 0.226571 -0.259583 -0.227181 -0.186587 -0.137805 -0.0808307 -0.015667 0.0576886 0.13923 0.228978 -0.264489 -0.232056 -0.191471 -0.142686 -0.085713 -0.0205483 0.0528042 0.134357 0.224061 -0.261982 -0.22956 -0.188972 -0.140188 -0.0832144 -0.01805 0.0553034 0.136853 0.226571 
</DataArray>
<DataArray Name="Warping_Z" format="ascii" type="Float64">
0 0 0 0 0 0 0 0 0 0 0 0 0 0 0 0 0 0 0 0 0 0 0 0 0 0 0 0 0 0 0 0 0 0 0 0 0 0 0 0 0 0 0 0 0 0 0 0 0 0 0 0 0 0 0 0 0 0 0 0 0 0 0 0 0 0 0 0 0 0 0 0 0 0 0 0 0 0 0 0 0 0 0 0 0 0 0 0 0 0 0 0 0 0 0 0 0 0 0 0 0 0 0 0 0 0 0 0 0 0 0 0 0 0 0 0 0 0 0 0 0 0 0 0 0 0 0 0 0 0 0 0 0 0 0 0 0 0 0 0 0 0 0 0 0 0 0 0 0 0 0 0 0 0 0 0 0 0 0 0 0 0 0 0 0 0 0 0 0 0 0 0 0 0 0 0 0 0 0 0 0 0 0 0 0 0 0 0 0 0 0 0 0 0 0 0 0 0 0 0 0 0 0 0 0 0 0 0 0 0 0 0 0 0 0 0 0 0 0 0 0 0 0 0 0 0 0 0 0 0 0 0 0 0 0 0 0 0 0 0 0 0 0 0 0 0 0 0 0 0 0 0 0 0 0 0 0 0 0 0 0 0 0 0 0 0 0 0 0 0 0 0 0 0 0 0 0 0 0 0 0 0 0 0 0 0 0 0 0 0 0 0 0 0 0 0 0 0 0 0 0 0 0 0 0 0 0 0 0 0 0 0 0 0 0 0 0 0 0 0 0 0 0 0 0 0 0 0 0 0 0 0 0 0 0 0 0 0 0 0 0 0 
</DataArray>
</PointData>
<CellData>
<DataArray Name="MaterialId" format="ascii" type="Float64">
3 3 3 3 3 3 3 3 3 3 3 3 3 3 3 3 3 3 3 3 3 3 3 3 3 3 3 3 3 3 3 3 1 1 1 1 1 1 1 1 1 1 1 1 1 1 1 1 1 1 1 1 1 1 1 1 1 1 1 1 1 1 1 1 1 1 1 1 1 1 1 1 1 1 1 1 1 1 1 1 1 1 1 1 1 1 1 1 1 1 1 1 1 1 1 1 1 1 1 1 1 1 1 1 1 1 1 1 1 1 1 1 3 3 3 3 3 3 3 3 3 3 3 3 3 3 3 3 3 3 3 3 3 3 3 3 3 3 3 3 3 3 3 3 3 3 3 3 3 3 3 3 3 3 3 3 3 3 3 3 3 3 3 3 3 3 3 3 3 3 3 3 3 3 3 3 3 3 3 3 3 3 3 3 3 3 3 3 3 3 3 3 3 3 3 3 3 3 3 3 3 3 3 3 3 3 3 3 3 3 3 3 3 3 3 3 3 3 3 3 3 3 3 3 3 3 3 3 3 3 3 3 
</DataArray>
<DataArray Name="FiberAngle" format="ascii" type="Float64">
-45 -45 -45 -45 -45 -45 -45 -45 -45 -45 -45 -45 -45 -45 -45 -45 -45 -45 -45 -45 -45 -45 -45 -45 -45 -45 -45 -45 -45 -45 -45 -45 0 0 0 0 0 0 0 0 0 0 0 0 0 0 0 0 0 0 0 0 0 0 0 0 0 0 0 0 0 0 0 0 0 0 0 0 0 0 0 0 0 0 0 0 0 0 0 0 0 0 0 0 0 0 0 0 0 0 0 0 0 0 0 0 0 0 0 0 0 0 0 0 0 0 0 0 0 0 0 0 -45 -45 -45 -45 -45 -45 -45 -45 -45 -45 -45 -45 -45 -45 -45 -45 -45 -45 -45 -45 -45 -45 -45 -45 -45 -45 -45 -45 -45 -45 -45 -45 -45 -45 -45 -45 -45 -45 -45 -45 -45 -45 -45 -45 -45 -45 -45 -45 -45 -45 -45 -45 -45 -45 -45 -45 -45 -45 -45 -45 -45 -45 -45 -45 -45 -45 -45 -45 -45 -45 -45 -45 -45 -45 -45 -45 -45 -45 -45 -45 -45 -45 -45 -45 -45 -45 -45 -45 -45 -45 -45 -45 -45 -45 -45 -45 -45 -45 -45 -45 -45 -45 -45 -45 -45 -45 -45 -45 -45 -45 -45 -45 -45 -45 -45 -45 -45 -45 -45 -45 
</DataArray>
<DataArray Name="Strain_11" format="ascii" type="Float64">
0.710729 0.740039 0.661031 0.664646 -0.661031 -0.664646 -0.710729 -0.740039 0.758923 0.762448 0.658725 0.658567 -0.658725 -0.658567 -0.758923 -0.762448 0.77197 0.78896 0.654402 0.653591 -0.654402 -0.653591 -0.77197 -0.78896 0.766903 0.715973 0.660445 0.655543 -0.660445 -0.655543 -0.766903 -0.715973 0.480397 0.32533 0.243647 0.143841 0.0483286 -0.0483286 -0.143841 -0.243647 -0.32533 -0.480397 0.479428 0.321845 0.241825 0.142593 0.0479437 -0.0479437 -0.142593 -0.241825 -0.321845 -0.479428 0.476571 0.325466 0.243023 0.143613 0.0482301 -0.0482301 -0.143613 -0.243023 -0.325466 -0.476571 0.475739 0.323608 0.241992 0.142926 0.0480148 -0.0480148 -0.142926 -0.241992 -0.323608 -0.475739 0.472242 0.329344 0.244184 0.144634 0.0485186 -0.0485186 -0.144634 -0.244184 -0.329344 -0.472242 0.469473 0.322184 0.240293 0.142016 0.0477028 -0.0477028 -0.142016 -0.240293 -0.322184 -0.469473 0.47206 0.318523 0.23913 0.140982 0.0474223 -0.0474223 -0.140982 -0.23913 -0.318523 -0.47206 0.476928 0.33095 0.245895 0.145528 0.04884 -0.04884 -0.145528 -0.245895 -0.33095 -0.476928 -0.655495 -0.658275 -0.657908 -0.657941 -0.657943 -0.65794 -0.657953 -0.657853 -0.65854 -0.654241 -0.684282 -0.679669 -0.680676 -0.680457 -0.680502 -0.680502 -0.680457 -0.680677 -0.679645 -0.684509 0.684282 0.679669 0.680676 0.680457 0.680502 0.680502 0.680457 0.680677 0.679645 0.684509 0.655495 0.658275 0.657908 0.657941 0.657943 0.65794 0.657953 0.657853 0.65854 0.654241 -0.652263 -0.655956 -0.655389 -0.655465 -0.655458 -0.655455 -0.655476 -0.65534 -0.656162 -0.651419 -0.68718 -0.68216 -0.683243 -0.68301 -0.683058 -0.683056 -0.683016 -0.683215 -0.682275 -0.686743 0.68718 0.68216 0.683243 0.68301 0.683058 0.683056 0.683016 0.683215 0.682275 0.686743 0.652263 0.655956 0.655389 0.655465 0.655458 0.655455 0.655476 0.65534 0.656162 0.651419 -0.659818 -0.660001 -0.659987 -0.659983 -0.659985 -0.659987 -0.659976 -0.660017 -0.659877 -0.66032 -0.678774 -0.677032 -0.677489 -0.677371 -0.677399 -0.6774 -0.677368 -0.6775 -0.676987 -0.67896 0.678774 0.677032 0.677489 0.677371 0.677399 0.6774 0.677368 0.6775 0.676987 0.67896 0.659818 0.660001 0.659987 0.659983 0.659985 0.659987 0.659976 0.660017 0.659877 0.66032 
</DataArray>
<DataArray Name="Strain_22" format="ascii" type="Float64">
0.4988 0.481633 0.4894 0.468749 -0.4894 -0.468749 -0.4988 -0.481633 0.481378 0.480138 0.479059 0.476299 -0.479059 -0.476299 -0.481378 -0.480138 0.480049 0.479343 0.487339 0.478745 -0.487339 -0.478745 -0.480049 -0.479343 0.481987 0.505228 0.471257 0.520782 -0.471257 -0.520782 -0.481987 -0.505228 0.412488 0.333158 0.23509 0.141656 0.0471202 -0.0471202 -0.141656 -0.23509 -0.333158 -0.412488 0.426727 0.344404 0.243081 0.14646 0.0487197 -0.0487197 -0.14646 -0.243081 -0.344404 -0.426727 0.416586 0.335425 0.236925 0.142711 0.0474794 -0.0474794 -0.142711 -0.236925 -0.335425 -0.416586 0.424508 0.341662 0.241361 0.145378 0.0483673 -0.0483673 -0.145378 -0.241361 -0.341662 -0.424508 0.406838 0.326386 0.230784 0.138966 0.0462399 -0.0462399 -0.138966 -0.230784 -0.326386 -0.406838 0.436905 0.350087 0.247636 0.149095 0.0496127 -0.0496127 -0.149095 -0.247636 -0.350087 -0.436905 0.447086 0.359084 0.253782 0.152848 0.0508513 -0.0508513 -0.152848 -0.253782 -0.359084 -0.447086 0.394839 0.317904 0.224501 0.135248 0.044991 -0.044991 -0.135248 -0.224501 -0.317904 -0.394839 -0.473788 -0.478761 -0.476728 -0.477367 -0.477197 -0.477209 -0.477321 -0.476937 -0.477832 -0.477838 -0.495697 -0.499844 -0.498694 -0.498978 -0.498918 -0.498919 -0.498966 -0.498754 -0.499575 -0.496756 0.495697 0.499844 0.498694 0.498978 0.498918 0.498919 0.498966 0.498754 0.499575 0.496756 0.473788 0.478761 0.476728 0.477367 0.477197 0.477209 0.477321 0.476937 0.477832 0.477838 -0.476103 -0.479007 -0.47744 -0.47798 -0.477827 -0.477848 -0.477906 -0.477745 -0.477761 -0.481049 -0.495363 -0.499061 -0.498064 -0.498306 -0.498256 -0.498257 -0.498292 -0.49814 -0.498711 -0.496791 0.495363 0.499061 0.498064 0.498306 0.498256 0.498257 0.498292 0.49814 0.498711 0.496791 0.476103 0.479007 0.47744 0.47798 0.477827 0.477848 0.477906 0.477745 0.477761 0.481049 -0.473251 -0.477733 -0.476384 -0.476774 -0.476674 -0.476662 -0.476813 -0.476225 -0.478379 -0.47065 -0.497113 -0.500388 -0.499533 -0.499751 -0.4997 -0.499697 -0.499761 -0.499487 -0.500585 -0.496294 0.497113 0.500388 0.499533 0.499751 0.4997 0.499697 0.499761 0.499487 0.500585 0.496294 0.473251 0.477733 0.476384 0.476774 0.476674 0.476662 0.476813 0.476225 0.478379 0.47065 
</DataArray>
<DataArray Name="Strain_12" format="ascii" type="Float64">
-0.0508024 -0.0275652 0.00243319 -0.0198107 0.00243319 -0.0198107 -0.0508024 -0.0275652 -0.011573 -0.00410914 -0.000985483 -0.0185882 -0.000985483 -0.0185882 -0.011573 -0.00410914 -0.0306857 -0.0375627 -0.0260117 -0.0467418 -0.0260117 -0.0467418 -0.0306857 -0.0375627 0.0832817 0.0769444 0.0691481 0.0421729 0.0691481 0.0421729 0.0832817 0.0769444 0.00527894 0.00511544 3.41516e-05 0.00245713 0.00166921 0.00166921 0.00245713 3.41516e-05 0.00511544 0.00527894 -0.00164583 -0.00148233 0.00359896 0.00117598 0.0019639 0.0019639 0.00117598 0.00359896 -0.00148233 -0.00164583 0.00412252 0.00406818 -0.000639217 0.00159972 0.000872261 0.000872261 0.00159972 -0.000639217 0.00406818 0.00412252 -0.00210601 -0.00205167 0.00265573 0.000416788 0.00114425 0.00114425 0.000416788 0.00265573 -0.00205167 -0.00210601 0.00971021 0.00580764 0.00253423 0.00432007 0.00371519 0.00371519 0.00432007 0.00253423 0.00580764 0.00971021 -0.00204983 0.00185274 0.00512615 0.00334031 0.00394519 0.00394519 0.00334031 0.00512615 0.00185274 -0.00204983 0.00275045 -0.0051762 -0.00792368 -0.00614925 -0.00677611 -0.00677611 -0.00614925 -0.00792368 -0.0051762 0.00275045 -0.0160604 -0.00813379 -0.00538631 -0.00716075 -0.00653388 -0.00653388 -0.00716075 -0.00538631 -0.00813379 -0.0160604 -0.00296071 -3.7228e-05 0.000213473 -0.000105338 4.62635e-05 -4.04165e-05 7.82242e-05 -0.000130014 -0.000146018 0.0029162 0.0111922 -0.00153168 8.49732e-05 4.8306e-05 -3.31047e-05 2.52868e-05 -8.65887e-06 -0.00023375 0.00205368 -0.0129068 0.0111922 -0.00153168 8.49732e-05 4.8306e-05 -3.31047e-05 2.52868e-05 -8.65887e-06 -0.00023375 0.00205368 -0.0129068 -0.00296071 -3.7228e-05 0.000213473 -0.000105338 4.62635e-05 -4.04165e-05 7.82242e-05 -0.000130014 -0.000146018 0.0029162 -0.00215569 -0.000118528 0.000209513 -9.94769e-05 4.23608e-05 -3.35053e-05 6.0069e-05 -9.54993e-05 -0.000109081 0.00201393 0.0120281 -0.00179098 0.000159272 2.7933e-05 -2.59791e-05 1.66291e-05 1.43818e-05 -0.000287148 0.00208514 -0.0122102 0.0120281 -0.00179098 0.000159272 2.7933e-05 -2.59791e-05 1.66291e-05 1.43818e-05 -0.000287148 0.00208514 -0.0122102 -0.00215569 -0.000118528 0.000209513 -9.94769e-05 4.23608e-05 -3.35053e-05 6.0069e-05 -9.54993e-05 -0.000109081 0.00201393 -0.000123753 -0.000147279 8.80857e-05 -3.78196e-05 1.84502e-05 -2.11623e-05 4.92794e-05 -0.000119284 0.000207738 0.000140821 0.00621947 -0.00135629 0.000282958 -5.47081e-05 8.60266e-06 -2.743e-06 2.66014e-05 -0.000183508 0.00101973 -0.00512047 0.00621947 -0.00135629 0.000282958 -5.47081e-05 8.60266e-06 -2.743e-06 2.66014e-05 -0.000183508 0.00101973 -0.00512047 -0.000123753 -0.000147279 8.80857e-05 -3.78196e-05 1.84502e-05 -2.11623e-05 4.92794e-05 -0.000119284 0.000207738 0.000140821 
</DataArray>
<DataArray Name="Strain_13" format="ascii" type="Float64">
-0.589607 -0.531315 -0.321384 -0.319748 0.321384 0.319748 0.589607 0.531315 -0.490834 -0.488962 -0.330406 -0.329616 0.330406 0.329616 0.490834 0.488962 -0.478581 -0.460225 -0.331134 -0.330223 0.331134 0.330223 0.478581 0.460225 -0.506091 -0.584879 -0.31821 -0.323178 0.31821 0.323178 0.506091 0.584879 0.233376 0.460679 0.269065 0.173588 0.0557835 -0.0557835 -0.173588 -0.269065 -0.460679 -0.233376 0.269272 0.451446 0.271442 0.172967 0.055981 -0.055981 -0.172967 -0.271442 -0.451446 -0.269272 0.214342 0.464469 0.268342 0.173717 0.0557611 -0.0557611 -0.173717 -0.268342 -0.464469 -0.214342 0.214255 0.464491 0.268336 0.173718 0.0557606 -0.0557606 -0.173718 -0.268336 -0.464491 -0.214255 0.20272 0.467221 0.267688 0.173875 0.0557148 -0.0557148 -0.173875 -0.267688 -0.467221 -0.20272 0.210016 0.465344 0.268171 0.173749 0.0557549 -0.0557549 -0.173749 -0.268171 -0.465344 -0.210016 0.266675 0.451937 0.271357 0.17298 0.0559799 -0.0559799 -0.17298 -0.271357 -0.451937 -0.266675 0.224096 0.462889 0.268537 0.173716 0.0557456 -0.0557456 -0.173716 -0.268537 -0.462889 -0.224096 0.600741 0.584533 0.587514 0.586972 0.587065 0.587071 0.586946 0.587646 0.583861 0.604149 0.597075 0.614594 0.611155 0.61183 0.611703 0.611699 0.611848 0.611062 0.615094 0.594401 -0.597075 -0.614594 -0.611155 -0.61183 -0.611703 -0.611699 -0.611848 -0.611062 -0.615094 -0.594401 -0.600741 -0.584533 -0.587514 -0.586972 -0.587065 -0.587071 -0.586946 -0.587646 -0.583861 -0.604149 0.602904 0.58341 0.587084 0.586397 0.58652 0.586523 0.586385 0.587136 0.583179 0.603926 0.594102 0.614545 0.610502 0.611301 0.611149 0.61115 0.6113 0.610505 0.614546 0.593996 -0.594102 -0.614545 -0.610502 -0.611301 -0.611149 -0.61115 -0.6113 -0.610505 -0.614546 -0.593996 -0.602904 -0.58341 -0.587084 -0.586397 -0.58652 -0.586523 -0.586385 -0.587136 -0.583179 -0.603926 0.591417 0.584845 0.586444 0.586056 0.586146 0.58614 0.586075 0.586365 0.585165 0.590122 0.604644 0.612332 0.610415 0.610891 0.610779 0.610783 0.610879 0.610465 0.612133 0.605448 -0.604644 -0.612332 -0.610415 -0.610891 -0.610779 -0.610783 -0.610879 -0.610465 -0.612133 -0.605448 -0.591417 -0.584845 -0.586444 -0.586056 -0.586146 -0.58614 -0.586075 -0.586365 -0.585165 -0.590122 
</DataArray>
<DataArray Name="Strain_23" format="ascii" type="Float64">
-2.11549 -2.06931 -2.44111 -2.0075 -2.44111 -2.0075 -2.11549 -2.06931 -0.889627 -0.830679 -0.991928 -0.731101 -0.991928 -0.731101 -0.889627 -0.830679 0.338028 0.394368 0.22746 0.448568 0.22746 0.448568 0.338028 0.394368 2.8201 2.86656 2.80254 3.20567 2.80254 3.20567 2.8201 2.86656 -1.98867 -2.09854 -2.07357 -2.07923 -2.07801 -2.07801 -2.07923 -2.07357 -2.09854 -1.98867 -2.14305 -2.03318 -2.05815 -2.05249 -2.05371 -2.05371 -2.05249 -2.05815 -2.03318 -2.14305 -0.772296 -0.897864 -0.869323 -0.875794 -0.874395 -0.874395 -0.875794 -0.869323 -0.897864 -0.772296 -0.952251 -0.826683 -0.855224 -0.848753 -0.850152 -0.850152 -0.848753 -0.855224 -0.826683 -0.952251 0.463033 0.334104 0.363409 0.356764 0.358201 0.358201 0.356764 0.363409 0.334104 0.463033 0.277601 0.40653 0.377225 0.38387 0.382433 0.382433 0.38387 0.377225 0.40653 0.277601 2.89495 2.78256 2.8081 2.80231 2.80356 2.80356 2.80231 2.8081 2.78256 2.89495 2.73646 2.84886 2.82331 2.8291 2.82785 2.82785 2.8291 2.82331 2.84886 2.73646 -1.90606 -1.8877 -1.75095 -1.63954 -1.52256 -1.40711 -1.28999 -1.17926 -1.03927 -1.03661 -1.97642 -1.87072 -1.75507 -1.63852 -1.52287 -1.40678 -1.2911 -1.17474 -1.05788 -0.959556 -1.97642 -1.87072 -1.75507 -1.63852 -1.52287 -1.40678 -1.2911 -1.17474 -1.05788 -0.959556 -1.90606 -1.8877 -1.75095 -1.63954 -1.52256 -1.40711 -1.28999 -1.17926 -1.03927 -1.03661 -0.684395 -0.677953 -0.535573 -0.4224 -0.302793 -0.184918 -0.0652799 0.0477413 0.190816 0.194102 -0.76029 -0.659539 -0.540063 -0.421285 -0.303131 -0.184577 -0.0664163 0.0523288 0.171994 0.271606 -0.76029 -0.659539 -0.540063 -0.421285 -0.303131 -0.184577 -0.0664163 0.0523288 0.171994 0.271606 -0.684395 -0.677953 -0.535573 -0.4224 -0.302793 -0.184918 -0.0652799 0.0477413 0.190816 0.194102 0.573649 0.742062 0.999236 1.23395 1.47442 1.71314 1.95346 2.18882 2.4434 2.62216 0.527594 0.754111 0.996079 1.23479 1.47415 1.71339 1.9527 2.19169 2.43247 2.66395 0.527594 0.754111 0.996079 1.23479 1.47415 1.71339 1.9527 2.19169 2.43247 2.66395 0.573649 0.742062 0.999236 1.23395 1.47442 1.71314 1.95346 2.18882 2.4434 2.62216 
</DataArray>
<DataArray Name="Strain_33" format="ascii" type="Float64">
-0.1225 -0.1225 -0.1175 -0.1175 0.1175 0.1175 0.1225 0.1225 -0.1225 -0.1225 -0.1175 -0.1175 0.1175 0.1175 0.1225 0.1225 -0.1225 -0.1225 -0.1175 -0.1175 0.1175 0.1175 0.1225 0.1225 -0.1225 -0.1225 -0.1175 -0.1175 0.1175 0.1175 0.1225 0.1225 -0.1035 -0.0805 -0.0575 -0.0345 -0.0115 0.0115 0.0345 0.0575 0.0805 0.1035 -0.1035 -0.0805 -0.0575 -0.0345 -0.0115 0.0115 0.0345 0.0575 0.0805 0.1035 -0.1035 -0.0805 -0.0575 -0.0345 -0.0115 0.0115 0.0345 0.0575 0.0805 0.1035 -0.1035 -0.0805 -0.0575 -0.0345 -0.0115 0.0115 0.0345 0.0575 0.0805 0.1035 -0.1035 -0.0805 -0.0575 -0.0345 -0.0115 0.0115 0.0345 0.0575 0.0805 0.1035 -0.1035 -0.0805 -0.0575 -0.0345 -0.0115 0.0115 0.0345 0.0575 0.0805 0.1035 -0.1035 -0.0805 -0.0575 -0.0345 -0.0115 0.0115 0.0345 0.0575 0.0805 0.1035 -0.1035 -0.0805 -0.0575 -0.0345 -0.0115 0.0115 0.0345 0.0575 0.0805 0.1035 0.1175 0.1175 0.1175 0.1175 0.1175 0.1175 0.1175 0.1175 0.1175 0.1175 0.1225 0.1225 0.1225 0.1225 0.1225 0.1225 0.1225 0.1225 0.1225 0.1225 -0.1225 -0.1225 -0.1225 -0.1225 -0.1225 -0.1225 -0.1225 -0.1225 -0.1225 -0.1225 -0.1175 -0.1175 -0.1175 -0.1175 -0.1175 -0.1175 -0.1175 -0.1175 -0.1175 -0.1175 0.1175 0.1175 0.1175 0.1175 0.1175 0.1175 0.1175 0.1175 0.1175 0.1175 0.1225 0.1225 0.1225 0.1225 0.1225 0.1225 0.1225 0.1225 0.1225 0.1225 -0.1225 -0.1225 -0.1225 -0.1225 -0.1225 -0.1225 -0.1225 -0.1225 -0.1225 -0.1225 -0.1175 -0.1175 -0.1175 -0.1175 -0.1175 -0.1175 -0.1175 -0.1175 -0.1175 -0.1175 0.1175 0.1175 0.1175 0.1175 0.1175 0.1175 0.1175 0.1175 0.1175 0.1175 0.1225 0.1225 0.1225 0.1225 0.1225 0.1225 0.1225 0.1225 0.1225 0.1225 -0.1225 -0.1225 -0.1225 -0.1225 -0.1225 -0.1225 -0.1225 -0.1225 -0.1225 -0.1225 -0.1175 -0.1175 -0.1175 -0.1175 -0.1175 -0.1175 -0.1175 -0.1175 -0.1175 -0.1175 
</DataArray>
<DataArray Name="Stress_11" format="ascii" type="Float64">
220.839 221.783 185.352 185.348 -185.352 -185.348 -220.839 -221.783 222.489 223.094 185.286 185.085 -185.286 -185.085 -222.489 -223.094 224.358 226.609 184.629 184.07 -184.629 -184.07 -224.358 -226.609 225.735 221.841 184.321 185.296 -184.321 -185.296 -225.735 -221.841 61.9604 43.1661 32.005 18.9588 6.35929 -6.35929 -18.9588 -32.005 -43.1661 -61.9604 62.2483 43.0912 32.0245 18.9537 6.36095 -6.36095 -18.9537 -32.0245 -43.0912 -62.2483 61.6491 43.2441 31.9866 18.9629 6.35833 -6.35833 -18.9629 -31.9866 -43.2441 -61.6491 61.7768 43.2109 31.9953 18.9606 6.35907 -6.35907 -18.9606 -31.9953 -43.2109 -61.7768 60.8973 43.424 31.945 18.9723 6.35595 -6.35595 -18.9723 -31.945 -43.424 -60.8973 61.4249 43.2867 31.9808 18.9628 6.359 -6.359 -18.9628 -31.9808 -43.2867 -61.4249 61.9952 43.1298 32.0223 18.9521 6.36224 -6.36224 -18.9521 -32.0223 -43.1298 -61.9952 61.0848 43.3667 31.9606 18.9684 6.35698 -6.35698 -18.9684 -31.9606 -43.3667 -61.0848 -208.778 -208.124 -208.24 -208.22 -208.223 -208.224 -208.219 -208.246 -208.093 -208.931 -215.287 -215.941 -215.825 -215.845 -215.842 -215.841 -215.846 -215.819 -215.971 -215.134 215.287 215.941 215.825 215.845 215.842 215.841 215.846 215.819 215.971 215.134 208.778 208.124 208.24 208.22 208.223 208.224 208.219 208.246 208.093 208.931 -208.302 -207.494 -207.642 -207.616 -207.62 -207.62 -207.615 -207.646 -207.479 -208.365 -215.678 -216.487 -216.339 -216.365 -216.361 -216.361 -216.366 -216.335 -216.502 -215.615 215.678 216.487 216.339 216.365 216.361 216.361 216.366 216.335 216.502 215.615 208.302 207.494 207.642 207.616 207.62 207.62 207.615 207.646 207.479 208.365 -208.918 -208.517 -208.613 -208.59 -208.596 -208.595 -208.592 -208.608 -208.539 -208.83 -214.743 -215.144 -215.048 -215.071 -215.066 -215.067 -215.07 -215.054 -215.123 -214.832 214.743 215.144 215.048 215.071 215.066 215.067 215.07 215.054 215.123 214.832 208.918 208.517 208.613 208.59 208.596 208.595 208.592 208.608 208.539 208.83 
</DataArray>
<DataArray Name="Stress_22" format="ascii" type="Float64">
83.781 82.6336 81.5773 79.0021 -81.5773 -79.0021 -83.781 -82.6336 83.3127 83.2724 80.1305 79.766 -80.1305 -79.766 -83.3127 -83.2724 83.6004 84.1138 81.0665 79.9177 -81.0665 -79.9177 -83.6004 -84.1138 83.6301 84.8064 79.1921 85.4923 -79.1921 -85.4923 -83.6301 -84.8064 56.3014 43.8184 31.2919 18.7767 6.25859 -6.25859 -18.7767 -31.2919 -43.8184 -56.3014 57.8566 44.9711 32.1292 19.2759 6.42562 -6.42562 -19.2759 -32.1292 -44.9711 -57.8566 56.6504 44.0741 31.4784 18.8877 6.29577 -6.29577 -18.8877 -31.4784 -44.0741 -56.6504 57.5075 44.7155 31.9427 19.1649 6.38845 -6.38845 -19.1649 -31.9427 -44.7155 -57.5075 55.447 43.1775 30.8284 18.5 6.16606 -6.16606 -18.5 -30.8284 -43.1775 -55.447 58.711 45.612 32.5927 19.5527 6.51816 -6.51816 -19.5527 -32.5927 -45.612 -58.711 59.914 46.5099 33.2433 19.9409 6.64799 -6.64799 -19.9409 -33.2433 -46.5099 -59.914 54.244 42.2796 30.1778 18.1117 6.03623 -6.03623 -18.1117 -30.1778 -42.2796 -54.244 -78.8049 -79.5799 -79.296 -79.3818 -79.3594 -79.3608 -79.3761 -79.3212 -79.4686 -79.2857 -82.4739 -82.8271 -82.7172 -82.7457 -82.7396 -82.7398 -82.7441 -82.7253 -82.7901 -82.6251 82.4739 82.8271 82.7172 82.7457 82.7396 82.7398 82.7441 82.7253 82.7901 82.6251 78.8049 79.5799 79.296 79.3818 79.3594 79.3608 79.3761 79.3212 79.4686 79.2857 -78.9949 -79.5365 -79.3054 -79.3799 -79.3594 -79.3621 -79.3706 -79.3436 -79.3809 -79.6112 -82.5332 -82.8083 -82.7223 -82.7445 -82.7398 -82.74 -82.7429 -82.7312 -82.7664 -82.7055 82.5332 82.8083 82.7223 82.7445 82.7398 82.74 82.7429 82.7312 82.7664 82.7055 78.9949 79.5365 79.3054 79.3799 79.3594 79.3621 79.3706 79.3436 79.3809 79.6112 -78.898 -79.5028 -79.3228 -79.3744 -79.3612 -79.3598 -79.3793 -79.3032 -79.5824 -78.5772 -82.4595 -82.8142 -82.7215 -82.7451 -82.7396 -82.7393 -82.7464 -82.7158 -82.8389 -82.3571 82.4595 82.8142 82.7215 82.7451 82.7396 82.7393 82.7464 82.7158 82.8389 82.3571 78.898 79.5028 79.3228 79.3744 79.3612 79.3598 79.3793 79.3032 79.5824 78.5772 
</DataArray>
<DataArray Name="Stress_12" format="ascii" type="Float64">
7.78333 8.83048 12.3394 8.94791 12.3394 8.94791 7.78333 8.83048 3.81162 3.92739 4.90544 2.63315 4.90544 2.63315 3.81162 3.92739 -3.37785 -4.03779 -2.56794 -4.81364 -2.56794 -4.81364 -3.37785 -4.03779 -9.52002 -10.1009 -10.2096 -13.7088 -10.2096 -13.7088 -9.52002 -10.1009 0.219958 0.213145 0.001423 0.102381 0.0695508 0.0695508 0.102381 0.001423 0.213145 0.219958 -0.068577 -0.0617642 0.149958 0.0489995 0.0818299 0.0818299 0.0489995 0.149958 -0.0617642 -0.068577 0.171773 0.169509 -0.0266342 0.0666556 0.0363445 0.0363445 0.0666556 -0.0266342 0.169509 0.171773 -0.0877512 -0.0854869 0.110656 0.0173663 0.0476774 0.0476774 0.0173663 0.110656 -0.0854869 -0.0877512 0.404595 0.241987 0.105594 0.180004 0.154801 0.154801 0.180004 0.105594 0.241987 0.404595 -0.0854102 0.0771981 0.213591 0.139181 0.164384 0.164384 0.139181 0.213591 0.0771981 -0.0854102 0.114603 -0.215677 -0.330156 -0.256221 -0.28234 -0.28234 -0.256221 -0.330156 -0.215677 0.114603 -0.669191 -0.338911 -0.224432 -0.298367 -0.272247 -0.272247 -0.298367 -0.224432 -0.338911 -0.669191 9.36746 9.43645 8.76648 8.19193 7.61535 7.03331 6.45425 5.88913 5.18833 5.34346 10.4977 9.26936 8.78003 8.19527 7.61255 7.03528 6.45503 5.86085 5.40234 4.08791 10.4977 9.26936 8.78003 8.19527 7.61255 7.03528 6.45503 5.86085 5.40234 4.08791 9.36746 9.43645 8.76648 8.19193 7.61535 7.03331 6.45425 5.88913 5.18833 5.34346 3.30341 3.38324 2.68939 2.10653 1.51629 0.922748 0.329703 -0.243959 -0.96008 -0.859745 4.46299 3.19919 2.70907 2.10796 1.51422 0.923799 0.332872 -0.277437 -0.745288 -2.02959 4.46299 3.19919 2.70907 2.10796 1.51422 0.923799 0.332872 -0.277437 -0.745288 -2.02959 3.30341 3.38324 2.68939 2.10653 1.51629 0.922748 0.329703 -0.243959 -0.96008 -0.859745 -2.87505 -3.71841 -4.99134 -6.17183 -7.37109 -8.56687 -9.76459 -10.9507 -12.2056 -13.1031 -2.2959 -3.84515 -4.96483 -6.17695 -7.3703 -8.56713 -9.76202 -10.9685 -12.1063 -13.6014 -2.2959 -3.84515 -4.96483 -6.17695 -7.3703 -8.56713 -9.76202 -10.9685 -12.1063 -13.6014 -2.87505 -3.71841 -4.99134 -6.17183 -7.37109 -8.56687 -9.76459 -10.9507 -12.2056 -13.1031 
</DataArray>
<DataArray Name="Stress_13" format="ascii" type="Float64">