<?xml version="1.0"?>
<VTKFile byte_order="LittleEndian" type="UnstructuredGrid" version="0.1">
<UnstructuredGrid>
<Piece NumberOfCells="232" NumberOfPoints="342">
<PointData>
<DataArray Name="Warping_X" format="ascii" type="Float64">
-0.336605 -0.335702 -0.33669 -0.311234 -0.323175 -0.310966 -0.311395 -0.323953 -0.324213 0.310966 0.311234 0.311395 0.335702 0.323175 0.336605 0.33669 0.323953 0.324213 -0.202411 -0.195172 -0.198886 -0.183932 -0.189133 -0.184604 -0.184376 -0.193857 -0.19167 0.184604 0.183932 0.184376 0.195172 0.189133 0.202411 0.198886 0.193857 0.19167 -0.00429056 0.00383548 -0.000260588 -0.00237288 0.000953859 -0.00316824 -0.00273532 -0.00415625 -0.00149169 0.00316824 0.00237288 0.00273532 -0.00383548 -0.000953859 0.00429056 0.000260588 0.00415625 0.00149169 0.343284 0.344426 0.344457 0.322227 0.333615 0.32226 0.322632 0.332597 0.333812 -0.32226 -0.322227 -0.322632 -0.344426 -0.333615 -0.343284 -0.344457 -0.332597 -0.333812 -0.248396 -0.186254 -0.124119 -0.0620476 8.34145e-14 0.0620476 0.124119 0.186254 0.248396 -0.249515 -0.186886 -0.124583 -0.0622723 8.32045e-14 0.0622723 0.124583 0.186886 0.249515 -0.248878 -0.18659 -0.124346 -0.0621611 8.33251e-14 0.0621611 0.124346 0.18659 0.248878 -0.14823 -0.112199 -0.07515 -0.0377003 3.47186e-15 0.0377003 0.07515 0.112199 0.14823 -0.149586 -0.112774 -0.0756277 -0.0379224 3.51628e-15 0.0379224 0.0756277 0.112774 0.149586 -0.148887 -0.112498 -0.0753899 -0.0378132 3.48496e-15 0.0378132 0.0753899 0.112498 0.148887 -0.00570093 -0.00698499 -0.00577615 -0.00324933 2.35277e-13 0.00324933 0.00577615 0.00698499 0.00570093 -0.00708757 -0.00755248 -0.00625544 -0.00347105 2.35449e-13 0.00347105 0.00625544 0.00755248 0.00708757 -0.00642545 -0.00727741 -0.00602509 -0.00336411 2.3548e-13 0.00336411 0.00602509 0.00727741 0.00642545 0.264147 0.201106 0.135638 0.0682676 -5.99092e-13 -0.0682676 -0.135638 -0.201106 -0.264147 0.262968 0.200488 0.13517 0.0680435 -5.9929e-13 -0.0680435 -0.13517 -0.200488 -0.262968 0.263485 0.200838 0.135409 0.0681625 -5.99462e-13 -0.0681625 -0.135409 -0.200838 -0.263485 0.323236 0.309679 0.296289 0.282878 0.269468 0.256058 0.242651 0.229232 0.215847 0.297454 0.285187 0.2726 0.260082 0.247549 0.235018 0.222493 0.209942 0.197498 0.310449 0.297401 0.284454 0.271477 0.258509 0.245539 0.232566 0.21961 0.206581 -0.297454 -0.285187 -0.2726 -0.260082 -0.247549 -0.235018 -0.222493 -0.209942 -0.197498 -0.323236 -0.309679 -0.296289 -0.282878 -0.269468 -0.256058 -0.242651 -0.229232 -0.215847 -0.310449 -0.297401 -0.284454 -0.271477 -0.258509 -0.245539 -0.232566 -0.21961 -0.206581 0.17643 0.157226 0.138075 0.118923 0.0997686 0.0806145 0.0614631 0.0423084 0.0231222 0.165108 0.147362 0.129377 0.111446 0.0935036 0.0755611 0.0576293 0.0396487 0.0218814 0.17089 0.152261 0.133735 0.115182 0.0966361 0.0780899 0.0595374 0.0410123 0.0223783 -0.165108 -0.147362 -0.129377 -0.111446 -0.0935036 -0.0755611 -0.0576293 -0.0396487 -0.0218814 -0.17643 -0.157226 -0.138075 -0.118923 -0.0997686 -0.0806145 -0.0614631 -0.0423084 -0.0231222 -0.17089 -0.152261 -0.133735 -0.115182 -0.0966361 -0.0780899 -0.0595374 -0.0410123 -0.0223783 -0.0377931 -0.0717822 -0.10577 -0.139757 -0.173745 -0.207731 -0.241724 -0.275685 -0.309786 -0.0303003 -0.0626155 -0.0950253 -0.12741 -0.159801 -0.192194 -0.224573 -0.257005 -0.289232 -0.0339868 -0.0672148 -0.100394 -0.133585 -0.166773 -0.199961 -0.233153 -0.26633 -0.299562 0.0303003 0.0626155 0.0950253 0.12741 0.159801 0.192194 0.224573 0.257005 0.289232 0.0377931 0.0717822 0.10577 0.139757 0.173745 0.207731 0.241724 0.275685 0.309786 0.0339868 0.0672148 0.100394 0.133585 0.166773 0.199961 0.233153 0.26633 0.299562 
</DataArray>
<DataArray Name="Warping_Y" format="ascii" type="Float64">
0.391344 0.366187 0.378536 0.363192 0.364689 0.390256 0.376652 0.390776 0.377525 0.390256 0.363192 0.376652 0.366187 0.364689 0.391344 0.378536 0.390776 0.377525 -0.148058 -0.162592 -0.156121 -0.166317 -0.164489 -0.15118 -0.15902 -0.149682 -0.157921 -0.15118 -0.166317 -0.15902 -0.162592 -0.164489 -0.148058 -0.156121 -0.149682 -0.157921 -0.312894 -0.310638 -0.312686 -0.314232 -0.312471 -0.316536 -0.315679 -0.314782 -0.314569 -0.316536 -0.314232 -0.315679 -0.310638 -0.312471 -0.312894 -0.312686 -0.314782 -0.314569 0.365231 0.386946 0.375819 0.386307 0.386484 0.361712 0.373877 0.363465 0.374796 0.361712 0.386307 0.373877 0.386946 0.386484 0.365231 0.375819 0.363465 0.374796 0.387723 0.385893 0.384576 0.383783 0.38352 0.383783 0.384576 0.385893 0.387723 0.360583 0.358824 0.357527 0.356753 0.356495 0.356753 0.357527 0.358824 0.360583 0.374149 0.372384 0.371059 0.370282 0.370019 0.370282 0.371059 0.372384 0.374149 -0.153805 -0.155374 -0.156558 -0.157265 -0.157499 -0.157265 -0.156558 -0.155374 -0.153805 -0.169447 -0.171363 -0.172807 -0.173667 -0.173952 -0.173667 -0.172807 -0.171363 -0.169447 -0.161621 -0.163336 -0.164679 -0.16545 -0.165715 -0.16545 -0.164679 -0.163336 -0.161621 -0.318776 -0.319974 -0.320906 -0.321461 -0.321644 -0.321461 -0.320906 -0.319974 -0.318776 -0.317825 -0.320099 -0.321795 -0.322808 -0.323144 -0.322808 -0.321795 -0.320099 -0.317825 -0.318295 -0.320002 -0.321348 -0.322118 -0.322384 -0.322118 -0.321348 -0.320002 -0.318295 0.358086 0.355631 0.35382 0.35274 0.35238 0.35274 0.35382 0.355631 0.358086 0.384624 0.38352 0.382713 0.382225 0.382065 0.382225 0.382713 0.38352 0.384624 0.371356 0.369602 0.368273 0.367497 0.367234 0.367497 0.368273 0.369602 0.371356 0.306582 0.24763 0.190989 0.136377 0.0838344 0.0333595 -0.0150517 -0.0613939 -0.105649 0.303295 0.244401 0.187752 0.133139 0.0805979 0.0301214 -0.0182862 -0.0646355 -0.108892 0.304922 0.245973 0.189341 0.134724 0.0821834 0.0317069 -0.0167009 -0.0630518 -0.107292 0.303295 0.244401 0.187752 0.133139 0.0805979 0.0301214 -0.0182862 -0.0646355 -0.108892 0.306582 0.24763 0.190989 0.136377 0.0838344 0.0333595 -0.0150517 -0.0613939 -0.105649 0.304922 0.245973 0.189341 0.134724 0.0821834 0.0317069 -0.0167009 -0.0630518 -0.107292 -0.19002 -0.215356 -0.237652 -0.257053 -0.273545 -0.287125 -0.297795 -0.305569 -0.310317 -0.193923 -0.219242 -0.241534 -0.260939 -0.277429 -0.291011 -0.301679 -0.309452 -0.314237 -0.191995 -0.217343 -0.239628 -0.259034 -0.275524 -0.289106 -0.299772 -0.307555 -0.312294 -0.193923 -0.219242 -0.241534 -0.260939 -0.277429 -0.291011 -0.301679 -0.309452 -0.314237 -0.19002 -0.215356 -0.237652 -0.257053 -0.273545 -0.287125 -0.297795 -0.305569 -0.310317 -0.191995 -0.217343 -0.239628 -0.259034 -0.275524 -0.289106 -0.299772 -0.307555 -0.312294 -0.277706 -0.237229 -0.188963 -0.132959 -0.0692069 0.00228956 0.0815426 0.168499 0.263388 -0.281333 -0.240856 -0.192588 -0.136585 -0.0728324 -0.00133585 0.0779158 0.164879 0.259737 -0.279548 -0.239075 -0.190807 -0.134804 -0.0710512 0.000444815 0.0796984 0.166655 0.261531 -0.281333 -0.240856 -0.192588 -0.136585 -0.0728324 -0.00133585 0.0779158 0.164879 0.259737 -0.277706 -0.237229 -0.188963 -0.132959 -0.0692069 0.00228956 0.0815426 0.168499 0.263388 -0.279548 -0.239075 -0.190807 -0.134804 -0.0710512 0.000444815 0.0796984 0.166655 0.261531 
</DataArray>
<DataArray Name="Warping_Z" format="ascii" type="Float64">
0 0 0 0 0 0 0 0 0 0 0 0 0 0 0 0 0 0 0 0 0 0 0 0 0 0 0 0 0 0 0 0 0 0 0 0 0 0 0 0 0 0 0 0 0 0 0 0 0 0 0 0 0 0 0 0 0 0 0 0 0 0 0 0 0 0 0 0 0 0 0 0 0 0 0 0 0 0 0 0 0 0 0 0 0 0 0 0 0 0 0 0 0 0 0 0 0 0 0 0 0 0 0 0 0 0 0 0 0 0 0 0 0 0 0 0 0 0 0 0 0 0 0 0 0 0 0 0 0 0 0 0 0 0 0 0 0 0 0 0 0 0 0 0 0 0 0 0 0 0 0 0 0 0 0 0 0 0 0 0 0 0 0 0 0 0 0 0 0 0 0 0 0 0 0 0 0 0 0 0 0 0 0 0 0 0 0 0 0 0 0 0 0 0 0 0 0 0 0 0 0 0 0 0 0 0 0 0 0 0 0 0 0 0 0 0 0 0 0 0 0 0 0 0 0 0 0 0 0 0 0 0 0 0 0 0 0 0 0 0 0 0 0 0 0 0 0 0 0 0 0 0 0 0 0 0 0 0 0 0 0 0 0 0 0 0 0 0 0 0 0 0 0 0 0 0 0 0 0 0 0 0 0 0 0 0 0 0 0 0 0 0 0 0 0 0 0 0 0 0 0 0 0 0 0 0 0 0 0 0 0 0 0 0 0 0 0 0 0 0 0 0 0 0 0 0 0 0 0 0 0 0 0 0 0 0 0 0 0 0 0 0 
</DataArray>
</PointData>
<CellData>
<DataArray Name="MaterialId" format="ascii" type="Float64">
3 3 3 3 3 3 3 3 3 3 3 3 3 3 3 3 3 3 3 3 3 3 3 3 3 3 3 3 3 3 3 3 1 1 1 1 1 1 1 1 1 1 1 1 1 1 1 1 1 1 1 1 1 1 1 1 1 1 1 1 1 1 1 1 1 1 1 1 1 1 1 1 1 1 1 1 1 1 1 1 1 1 1 1 1 1 1 1 1 1 1 1 1 1 1 1 1 1 1 1 1 1 1 1 1 1 1 1 1 1 1 1 3 3 3 3 3 3 3 3 3 3 3 3 3 3 3 3 3 3 3 3 3 3 3 3 3 3 3 3 3 3 3 3 3 3 3 3 3 3 3 3 3 3 3 3 3 3 3 3 3 3 3 3 3 3 3 3 3 3 3 3 3 3 3 3 3 3 3 3 3 3 3 3 3 3 3 3 3 3 3 3 3 3 3 3 3 3 3 3 3 3 3 3 3 3 3 3 3 3 3 3 3 3 3 3 3 3 3 3 3 3 3 3 3 3 3 3 3 3 3 3 
</DataArray>
<DataArray Name="FiberAngle" format="ascii" type="Float64">
-45 -45 -45 -45 -45 -45 -45 -45 -45 -45 -45 -45 -45 -45 -45 -45 -45 -45 -45 -45 -45 -45 -45 -45 -45 -45 -45 -45 -45 -45 -45 -45 0 0 0 0 0 0 0 0 0 0 0 0 0 0 0 0 0 0 0 0 0 0 0 0 0 0 0 0 0 0 0 0 0 0 0 0 0 0 0 0 0 0 0 0 0 0 0 0 0 0 0 0 0 0 0 0 0 0 0 0 0 0 0 0 0 0 0 0 0 0 0 0 0 0 0 0 0 0 0 0 -45 -45 -45 -45 -45 -45 -45 -45 -45 -45 -45 -45 -45 -45 -45 -45 -45 -45 -45 -45 -45 -45 -45 -45 -45 -45 -45 -45 -45 -45 -45 -45 -45 -45 -45 -45 -45 -45 -45 -45 -45 -45 -45 -45 -45 -45 -45 -45 -45 -45 -45 -45 -45 -45 -45 -45 -45 -45 -45 -45 -45 -45 -45 -45 -45 -45 -45 -45 -45 -45 -45 -45 -45 -45 -45 -45 -45 -45 -45 -45 -45 -45 -45 -45 -45 -45 -45 -45 -45 -45 -45 -45 -45 -45 -45 -45 -45 -45 -45 -45 -45 -45 -45 -45 -45 -45 -45 -45 -45 -45 -45 -45 -45 -45 -45 -45 -45 -45 -45 -45 
</DataArray>
<DataArray Name="Strain_11" format="ascii" type="Float64">
-0.0345421 0.202589 -0.0688277 0.119811 0.0688277 -0.119811 0.0345421 -0.202589 0.571211 0.625114 0.241469 0.298216 -0.241469 -0.298216 -0.571211 -0.625114 0.669453 0.654161 0.309748 0.280799 -0.309748 -0.280799 -0.669453 -0.654161 0.238769 -0.0227771 0.158713 -0.0601939 -0.158713 0.0601939 -0.238769 0.0227771 -0.0476668 -0.0933268 -0.0534105 -0.0349088 -0.0111271 0.0111271 0.0349088 0.0534105 0.0933268 0.0476668 -0.0910841 -0.0817475 -0.0562205 -0.0340352 -0.0113492 0.0113492 0.0340352 0.0562205 0.0817475 0.0910841 -0.0254113 -0.0975123 -0.0514178 -0.0347014 -0.0109208 0.0109208 0.0347014 0.0514178 0.0975123 0.0254113 -0.0429477 -0.0955523 -0.0538296 -0.035268 -0.0112862 0.0112862 0.035268 0.0538296 0.0955523 0.0429477 -0.0299683 -0.0937185 -0.050542 -0.0337299 -0.0106945 0.0106945 0.0337299 0.050542 0.0937185 0.0299683 -0.0291595 -0.101694 -0.0541361 -0.036372 -0.0114779 0.0114779 0.036372 0.0541361 0.101694 0.0291595 -0.0922083 -0.0866257 -0.0587679 -0.0357446 -0.011897 0.011897 0.0357446 0.0587679 0.0866257 0.0922083 -0.0289865 -0.0929904 -0.0497435 -0.0334647 -0.0105084 0.0105084 0.0334647 0.0497435 0.0929904 0.0289865 -0.563965 -0.53862 -0.543293 -0.54242 -0.542585 -0.542563 -0.542524 -0.542699 -0.541998 -0.545049 -0.536003 -0.566064 -0.560381 -0.561424 -0.561241 -0.561274 -0.561272 -0.561168 -0.562026 -0.556578 0.536003 0.566064 0.560381 0.561424 0.561241 0.561274 0.561272 0.561168 0.562026 0.556578 0.563965 0.53862 0.543293 0.54242 0.542585 0.542563 0.542524 0.542699 0.541998 0.545049 -0.772211 -0.757814 -0.760645 -0.760068 -0.760186 -0.760181 -0.76009 -0.760536 -0.75836 -0.769483 -0.770529 -0.788182 -0.784948 -0.785506 -0.78542 -0.785422 -0.785497 -0.784996 -0.787922 -0.771952 0.770529 0.788182 0.784948 0.785506 0.78542 0.785422 0.785497 0.784996 0.787922 0.771952 0.772211 0.757814 0.760645 0.760068 0.760186 0.760181 0.76009 0.760536 0.75836 0.769483 -0.677383 -0.675703 -0.676171 -0.676042 -0.676073 -0.676086 -0.675994 -0.676374 -0.674839 -0.681071 -0.690625 -0.69296 -0.692445 -0.692554 -0.692538 -0.692514 -0.692631 -0.692141 -0.694158 -0.685914 0.690625 0.69296 0.692445 0.692554 0.692538 0.692514 0.692631 0.692141 0.694158 0.685914 0.677383 0.675703 0.676171 0.676042 0.676073 0.676086 0.675994 0.676374 0.674839 0.681071 
</DataArray>
<DataArray Name="Strain_22" format="ascii" type="Float64">
-0.157876 -0.250882 -0.139293 -0.236955 0.139293 0.236955 0.157876 0.250882 -0.342435 -0.369648 -0.259744 -0.292787 0.259744 0.292787 0.342435 0.369648 -0.376998 -0.371535 -0.28648 -0.287188 0.28648 0.287188 0.376998 0.371535 -0.278948 -0.148555 -0.267281 -0.10952 0.267281 0.10952 0.278948 0.148555 -0.111132 -0.0766167 -0.0570021 -0.0337252 -0.011321 0.011321 0.0337252 0.0570021 0.0766167 0.111132 -0.109474 -0.0781766 -0.0574201 -0.0341368 -0.0114259 0.0114259 0.0341368 0.0574201 0.0781766 0.109474 -0.12459 -0.078926 -0.0605774 -0.0354662 -0.0119671 0.0119671 0.0354662 0.0605774 0.078926 0.12459 -0.113614 -0.0713698 -0.0549407 -0.0321394 -0.0108471 0.0108471 0.0321394 0.0549407 0.0713698 0.113614 -0.134957 -0.0865588 -0.0661244 -0.038778 -0.0130723 0.0130723 0.038778 0.0661244 0.0865588 0.134957 -0.105555 -0.06315 -0.049536 -0.0287944 -0.00975057 0.00975057 0.0287944 0.049536 0.06315 0.105555 -0.0913832 -0.0621516 -0.0464408 -0.0274502 -0.00921334 0.00921334 0.0274502 0.0464408 0.0621516 0.0913832 -0.133612 -0.0915063 -0.0682613 -0.0403455 -0.0135513 0.0135513 0.0403455 0.0682613 0.0915063 0.133612 0.312475 0.319991 0.316105 0.317353 0.317011 0.317106 0.317083 0.316911 0.318377 0.309794 0.315738 0.331693 0.330552 0.330146 0.330399 0.330361 0.330181 0.330704 0.330022 0.326674 -0.315738 -0.331693 -0.330552 -0.330146 -0.330399 -0.330361 -0.330181 -0.330704 -0.330022 -0.326674 -0.312475 -0.319991 -0.316105 -0.317353 -0.317011 -0.317106 -0.317083 -0.316911 -0.318377 -0.309794 0.375636 0.382754 0.380577 0.381109 0.381003 0.380991 0.38116 0.380326 0.383976 0.369767 0.387106 0.396189 0.396364 0.395738 0.396004 0.396001 0.39575 0.39631 0.396392 0.386479 -0.387106 -0.396189 -0.396364 -0.395738 -0.396004 -0.396001 -0.39575 -0.39631 -0.396392 -0.386479 -0.375636 -0.382754 -0.380577 -0.381109 -0.381003 -0.380991 -0.38116 -0.380326 -0.383976 -0.369767 0.354631 0.356538 0.356168 0.356226 0.356232 0.35619 0.356325 0.355913 0.357029 0.354759 0.367515 0.368871 0.369005 0.368847 0.368913 0.368904 0.368897 0.368756 0.370038 0.362301 -0.367515 -0.368871 -0.369005 -0.368847 -0.368913 -0.368904 -0.368897 -0.368756 -0.370038 -0.362301 -0.354631 -0.356538 -0.356168 -0.356226 -0.356232 -0.35619 -0.356325 -0.355913 -0.357029 -0.354759 
</DataArray>
<DataArray Name="Strain_12" format="ascii" type="Float64">
-0.0931222 -0.017961 -0.105056 -0.15359 -0.105056 -0.15359 -0.0931222 -0.017961 -0.0531356 0.0215777 0.046908 -0.137049 0.046908 -0.137049 -0.0531356 0.0215777 -0.0676046 0.00339521 0.0814025 -0.102505 0.0814025 -0.102505 -0.0676046 0.00339521 0.0586237 0.135869 0.197829 0.155059 0.197829 0.155059 0.0586237 0.135869 -0.00178957 0.00301806 -0.00154498 0.000337389 -0.00024323 -0.00024323 0.000337389 -0.00154498 0.00301806 -0.00178957 0.00151536 -0.00329227 0.00127076 -0.000611601 -3.09818e-05 -3.09818e-05 -0.000611601 0.00127076 -0.00329227 0.00151536 0.00587235 0.00597209 -0.00125828 0.00216979 0.00105713 0.00105713 0.00216979 -0.00125828 0.00597209 0.00587235 -0.00334227 -0.00344201 0.00378837 0.000360296 0.00147295 0.00147295 0.000360296 0.00378837 -0.00344201 -0.00334227 0.00903294 0.00872291 0.00109569 0.00473651 0.00355215 0.00355215 0.00473651 0.00109569 0.00872291 0.00903294 -0.00148561 -0.00117558 0.00645164 0.00281082 0.00399518 0.00399518 0.00281082 0.00645164 -0.00117558 -0.00148561 -0.00418919 -0.00154337 -0.00654788 -0.00432778 -0.00503188 -0.00503188 -0.00432778 -0.00654788 -0.00154337 -0.00418919 -0.00561402 -0.00825983 -0.00325533 -0.00547542 -0.00477132 -0.00477132 -0.00547542 -0.00325533 -0.00825983 -0.00561402 -0.0524666 0.0135922 -0.00351272 0.000899482 -0.000243004 0.00014569 -0.000429823 0.00183698 -0.00778527 0.0319748 -0.00842196 -0.00197382 0.00129969 -0.000478592 0.000161078 -0.000118286 0.000360964 -0.00148668 0.00594054 -0.022276 -0.00842196 -0.00197382 0.00129969 -0.000478592 0.000161078 -0.000118286 0.000360964 -0.00148668 0.00594054 -0.022276 -0.0524666 0.0135922 -0.00351272 0.000899482 -0.000243004 0.00014569 -0.000429823 0.00183698 -0.00778527 0.0319748 -0.0498815 0.0124704 -0.00307512 0.000752109 -0.000216268 0.000217288 -0.000756348 0.00307801 -0.0123702 0.048771 0.013515 -0.00543733 0.00171711 -0.000489102 0.000157961 -0.000165074 0.000531965 -0.0019201 0.0063667 -0.017701 0.013515 -0.00543733 0.00171711 -0.000489102 0.000157961 -0.000165074 0.000531965 -0.0019201 0.0063667 -0.017701 -0.0498815 0.0124704 -0.00307512 0.000752109 -0.000216268 0.000217288 -0.000756348 0.00307801 -0.0123702 0.048771 -0.0227494 0.00594908 -0.00154971 0.000412051 -0.00014919 0.000201907 -0.000670124 0.0025038 -0.00942548 0.035477 0.0101323 -0.00283584 0.000779442 -0.000212552 6.13155e-05 -2.33705e-05 -9.92319e-06 0.000242164 -0.00170164 0.00961553 0.0101323 -0.00283584 0.000779442 -0.000212552 6.13155e-05 -2.33705e-05 -9.92319e-06 0.000242164 -0.00170164 0.00961553 -0.0227494 0.00594908 -0.00154971 0.000412051 -0.00014919 0.000201907 -0.000670124 0.0025038 -0.00942548 0.035477 
</DataArray>
<DataArray Name="Strain_13" format="ascii" type="Float64">
-1.02656 -0.495999 -1.01458 -0.331738 1.01458 0.331738 1.02656 0.495999 0.428858 0.530392 -0.0237364 0.203212 0.0237364 -0.203212 -0.428858 -0.530392 0.623434 0.565317 0.258191 0.17059 -0.258191 -0.17059 -0.623434 -0.565317 -0.486416 -1.01347 -0.10794 -0.945017 0.10794 0.945017 0.486416 1.01347 -0.851875 -1.18601 -0.730976 -0.462973 -0.149949 0.149949 0.462973 0.730976 1.18601 0.851875 -1.16931 -1.10436 -0.751999 -0.45748 -0.151695 0.151695 0.45748 0.751999 1.10436 1.16931 -0.792596 -1.1967 -0.729263 -0.463173 -0.149961 0.149961 0.463173 0.729263 1.1967 0.792596 -0.92373 -1.16297 -0.737948 -0.460903 -0.150683 0.150683 0.460903 0.737948 1.16297 0.92373 -0.823441 -1.18717 -0.732082 -0.462349 -0.15025 0.15025 0.462349 0.732082 1.18717 0.823441 -0.785957 -1.19681 -0.7296 -0.462998 -0.150044 0.150044 0.462998 0.7296 1.19681 0.785957 -1.12541 -1.1126 -0.750576 -0.457686 -0.151681 0.151681 0.457686 0.750576 1.1126 1.12541 -0.691332 -1.22425 -0.721828 -0.465197 -0.149293 0.149293 0.465197 0.721828 1.22425 0.691332 -0.504257 -0.381117 -0.404548 -0.400085 -0.400932 -0.400799 -0.400681 -0.401413 -0.397703 -0.416689 -0.370666 -0.497179 -0.473026 -0.47761 -0.476751 -0.476892 -0.476981 -0.476299 -0.480122 -0.459421 0.370666 0.497179 0.473026 0.47761 0.476751 0.476892 0.476981 0.476299 0.480122 0.459421 0.504257 0.381117 0.404548 0.400085 0.400932 0.400799 0.400681 0.401413 0.397703 0.416689 -1.00405 -0.93166 -0.945724 -0.942982 -0.943504 -0.943487 -0.943053 -0.945362 -0.933512 -0.994583 -0.956851 -1.03157 -1.01722 -1.01994 -1.01945 -1.01946 -1.01988 -1.01753 -1.02992 -0.965382 0.956851 1.03157 1.01722 1.01994 1.01945 1.01946 1.01988 1.01753 1.02992 0.965382 1.00405 0.93166 0.945724 0.942982 0.943504 0.943487 0.943053 0.945362 0.933512 0.994583 -0.739618 -0.725093 -0.728714 -0.727821 -0.727999 -0.728136 -0.727367 -0.730535 -0.717691 -0.769732 -0.792023 -0.807017 -0.803362 -0.804241 -0.804073 -0.803929 -0.804716 -0.801469 -0.814658 -0.761179 0.792023 0.807017 0.803362 0.804241 0.804073 0.803929 0.804716 0.801469 0.814658 0.761179 0.739618 0.725093 0.728714 0.727821 0.727999 0.728136 0.727367 0.730535 0.717691 0.769732 
</DataArray>
<DataArray Name="Strain_23" format="ascii" type="Float64">
5.03443 5.06431 3.9093 4.07566 3.9093 4.07566 5.03443 5.06431 2.31652 2.12707 2.26191 1.69158 2.26191 1.69158 2.31652 2.12707 -0.835904 -1.03301 -0.523012 -1.06587 -0.523012 -1.06587 -0.835904 -1.03301 -7.08531 -7.02057 -6.14464 -5.74245 -6.14464 -5.74245 -7.08531 -7.02057 1.16201 1.31345 1.27903 1.28683 1.28514 1.28514 1.28683 1.27903 1.31345 1.16201 1.33271 1.18127 1.21569 1.20788 1.20957 1.20957 1.20788 1.21569 1.18127 1.33271 0.834748 1.05079 1.00169 1.01282 1.01041 1.01041 1.01282 1.00169 1.05079 0.834748 1.11072 0.894678 0.943784 0.932649 0.935056 0.935056 0.932649 0.943784 0.894678 1.11072 -0.617677 -0.378976 -0.433232 -0.420929 -0.423589 -0.423589 -0.420929 -0.433232 -0.378976 -0.617677 -0.304782 -0.543482 -0.489227 -0.501529 -0.49887 -0.49887 -0.501529 -0.489227 -0.543482 -0.304782 -2.54127 -2.3465 -2.39077 -2.38074 -2.38291 -2.38291 -2.38074 -2.39077 -2.3465 -2.54127 -2.29997 -2.49474 -2.45047 -2.4605 -2.45833 -2.45833 -2.4605 -2.45047 -2.49474 -2.29997 4.83906 5.12093 4.68667 4.4023 4.086 3.77691 3.46486 3.15959 2.82513 2.62467 5.15005 5.04456 4.70549 4.39764 4.08722 3.77632 3.46613 3.15482 2.84394 2.5502 5.15005 5.04456 4.70549 4.39764 4.08722 3.77632 3.46613 3.15482 2.84394 2.5502 4.83906 5.12093 4.68667 4.4023 4.086 3.77691 3.46486 3.15959 2.82513 2.62467 1.78232 1.83574 1.43961 1.13951 0.818396 0.502752 0.182126 -0.120341 -0.505387 -0.504462 1.9937 1.78326 1.45268 1.13621 0.819385 0.501839 0.185017 -0.131717 -0.459852 -0.687374 1.9937 1.78326 1.45268 1.13621 0.819385 0.501839 0.185017 -0.131717 -0.459852 -0.687374 1.78232 1.83574 1.43961 1.13951 0.818396 0.502752 0.182126 -0.120341 -0.505387 -0.504462 -1.4851 -1.99206 -2.66696 -3.2993 -3.94294 -4.5816 -5.2299 -5.84251 -6.5962 -6.78943 -1.40985 -2.01188 -2.66172 -3.30075 -3.9423 -4.58274 -5.22591 -5.85764 -6.53859 -7.00896 -1.40985 -2.01188 -2.66172 -3.30075 -3.9423 -4.58274 -5.22591 -5.85764 -6.53859 -7.00896 -1.4851 -1.99206 -2.66696 -3.2993 -3.94294 -4.5816 -5.2299 -5.84251 -6.5962 -6.78943 
</DataArray>
<DataArray Name="Strain_33" format="ascii" type="Float64">
0 0 0 0 0 0 0 0 0 0 0 0 0 0 0 0 0 0 0 0 0 0 0 0 0 0 0 0 0 0 0 0 0 0 0 0 0 0 0 0 0 0 0 0 0 0 0 0 0 0 0 0 0 0 0 0 0 0 0 0 0 0 0 0 0 0 0 0 0 0 0 0 0 0 0 0 0 0 0 0 0 0 0 0 0 0 0 0 0 0 0 0 0 0 0 0 0 0 0 0 0 0 0 0 0 0 0 0 0 0 0 0 0 0 0 0 0 0 0 0 0 0 0 0 0 0 0 0 0 0 0 0 0 0 0 0 0 0 0 0 0 0 0 0 0 0 0 0 0 0 0 0 0 0 0 0 0 0 0 0 0 0 0 0 0 0 0 0 0 0 0 0 0 0 0 0 0 0 0 0 0 0 0 0 0 0 0 0 0 0 0 0 0 0 0 0 0 0 0 0 0 0 0 0 0 0 0 0 0 0 0 0 0 0 0 0 0 0 0 0 0 0 0 0 0 0 0 0 0 0 0 0 
</DataArray>
<DataArray Name="Stress_11" format="ascii" type="Float64">
79.4275 83.2781 71.0321 49.7486 -71.0321 -49.7486 -79.4275 -83.2781 82.0024 84.3963 49.3268 40.8564 -49.3268 -40.8564 -82.0024 -84.3963 86.0096 87.9024 38.7716 39.9588 -38.7716 -39.9588 -86.0096 -87.9024 89.8463 81.281 37.5233 67.7464 -37.5233 -67.7464 -89.8463 -81.281 -8.38332 -12.4979 -7.51789 -4.81557 -1.55082 1.55082 4.81557 7.51789 12.4979 8.38332 -13.1614 -11.2546 -7.84172 -4.72993 -1.57841 1.57841 4.72993 7.84172 11.2546 13.1614 -6.2843 -13.0271 -7.3958 -4.84089 -1.54584 1.54584 4.84089 7.3958 13.0271 6.2843 -7.92792 -12.5994 -7.50719 -4.81143 -1.55533 1.55533 4.81143 7.50719 12.5994 7.92792 -7.07861 -12.8176 -7.45256 -4.82493 -1.5514 1.5514 4.82493 7.45256 12.8176 7.07861 -6.17203 -13.0535 -7.39112 -4.84118 -1.54617 1.54617 4.84118 7.39112 13.0535 6.17203 -12.7838 -11.3515 -7.81979 -4.73412 -1.57782 1.57782 4.73412 7.81979 11.3515 12.7838 -6.93217 -12.8741 -7.4232 -4.839 -1.54403 1.54403 4.839 7.4232 12.8741 6.93217 -74.5199 -79.523 -78.6187 -78.7778 -78.751 -78.7549 -78.7572 -78.7373 -78.861 -78.1402 -80.0037 -75.0006 -75.9049 -75.7458 -75.7726 -75.7687 -75.7664 -75.7863 -75.6626 -76.3834 80.0037 75.0006 75.9049 75.7458 75.7726 75.7687 75.7664 75.7863 75.6626 76.3834 74.5199 79.523 78.6187 78.7778 78.751 78.7549 78.7572 78.7373 78.861 78.1402 -75.4646 -78.4313 -77.8895 -77.9858 -77.9696 -77.9703 -77.9826 -77.9054 -78.3496 -75.8849 -78.9535 -75.9868 -76.5286 -76.4324 -76.4485 -76.4478 -76.4355 -76.5127 -76.0685 -78.5333 78.9535 75.9868 76.5286 76.4324 76.4485 76.4478 76.4355 76.5127 76.0685 78.5333 75.4646 78.4313 77.8895 77.9858 77.9696 77.9703 77.9826 77.9054 78.3496 75.8849 -78.1019 -78.961 -78.7547 -78.8036 -78.7943 -78.7865 -78.8301 -78.6457 -79.413 -76.2315 -76.0017 -75.1427 -75.3489 -75.3001 -75.3094 -75.3171 -75.2735 -75.458 -74.6906 -77.8721 76.0017 75.1427 75.3489 75.3001 75.3094 75.3171 75.2735 75.458 74.6906 77.8721 78.1019 78.961 78.7547 78.8036 78.7943 78.7865 78.8301 78.6457 79.413 76.2315 
</DataArray>
<DataArray Name="Stress_22" format="ascii" type="Float64">
-23.803 -26.9725 -22.5001 -27.6068 22.5001 27.6068 23.803 26.9725 -24.7719 -26.3234 -25.9043 -27.8774 25.9043 27.8774 24.7719 26.3234 -25.6156 -25.5277 -26.5587 -27.7934 26.5587 27.7934 25.6156 25.5277 -29.4094 -22.1644 -29.8294 -18.1824 29.8294 18.1824 29.4094 22.1644 -13.6721 -11.1054 -7.8172 -4.71693 -1.56697 1.56697 4.71693 7.8172 11.1054 13.6721 -14.6939 -10.9571 -7.94169 -4.7384 -1.5848 1.5848 4.7384 7.94169 10.9571 14.6939 -14.5492 -11.4782 -8.1591 -4.90461 -1.63304 1.63304 4.90461 8.1591 11.4782 14.5492 -13.8168 -10.5842 -7.59978 -4.55071 -1.51874 1.51874 4.55071 7.59978 10.5842 13.8168 -15.8277 -12.2209 -8.7511 -5.24561 -1.74955 1.74955 5.24561 8.7511 12.2209 15.8277 -12.5383 -9.84149 -7.00778 -4.20972 -1.40223 1.40223 4.20972 7.00778 9.84149 12.5383 -12.715 -9.312 -6.79253 -4.04293 -1.35418 1.35418 4.04293 6.79253 9.312 12.715 -15.651 -12.7504 -8.96635 -5.4124 -1.7976 1.7976 5.4124 8.96635 12.7504 15.651 20.951 23.0241 22.3136 22.5148 22.4629 22.4763 22.4748 22.445 22.6675 21.406 22.5764 23.4067 23.4954 23.3983 23.4393 23.4329 23.4093 23.4825 23.3571 23.1426 -22.5764 -23.4067 -23.4954 -23.3983 -23.4393 -23.4329 -23.4093 -23.4825 -23.3571 -23.1426 -20.951 -23.0241 -22.3136 -22.5148 -22.4629 -22.4763 -22.4748 -22.445 -22.6675 -21.406 21.2477 22.8025 22.3955 22.4898 22.4709 22.4695 22.4956 22.3671 22.9403 20.5905 22.8957 23.3452 23.5045 23.3986 23.4374 23.4369 23.4007 23.4953 23.3837 22.7494 -22.8957 -23.3452 -23.5045 -23.3986 -23.4374 -23.4369 -23.4007 -23.4953 -23.3837 -22.7494 -21.2477 -22.8025 -22.3955 -22.4898 -22.4709 -22.4695 -22.4956 -22.3671 -22.9403 -20.5905 22.1986 22.5325 22.4614 22.4751 22.4744 22.4682 22.4906 22.4178 22.6402 22.0327 23.3364 23.406 23.448 23.422 23.4315 23.4313 23.4249 23.4293 23.5036 22.873 -23.3364 -23.406 -23.448 -23.422 -23.4315 -23.4313 -23.4249 -23.4293 -23.5036 -22.873 -22.1986 -22.5325 -22.4614 -22.4751 -22.4744 -22.4682 -22.4906 -22.4178 -22.6402 -22.0327 
</DataArray>
<DataArray Name="Stress_12" format="ascii" type="Float64">
-30.2939 -26.3094 -25.3246 -28.8258 -25.3246 -28.8258 -30.2939 -26.3094 -14.505 -9.44859 -8.72961 -15.9956 -8.72961 -15.9956 -14.505 -9.44859 0.461267 5.35179 7.09219 -0.308402 7.09219 -0.308402 0.461267 5.35179 38.6509 42.5757 41.6038 37.2405 41.6038 37.2405 38.6509 42.5757 -0.0745661 0.125753 -0.0643746 0.014058 -0.0101347 -0.0101347 0.014058 -0.0643746 0.125753 -0.0745661 0.0631405 -0.137179 0.052949 -0.0254836 -0.00129092 -0.00129092 -0.0254836 0.052949 -0.137179 0.0631405 0.244683 0.248839 -0.052429 0.0904085 0.0440474 0.0440474 0.0904085 -0.052429 0.248839 0.244683 -0.139262 -0.143418 0.15785 0.0150125 0.0613735 0.0613735 0.0150125 0.15785 -0.143418 -0.139262 0.376376 0.363457 0.0456543 0.197356 0.148007 0.148007 0.197356 0.0456543 0.363457 0.376376 -0.0619008 -0.0489828 0.26882 0.117118 0.166467 0.166467 0.117118 0.26882 -0.0489828 -0.0619008 -0.174551 -0.0643078 -0.27283 -0.180326 -0.209663 -0.209663 -0.180326 -0.27283 -0.0643078 -0.174551 -0.233919 -0.344162 -0.13564 -0.228144 -0.198807 -0.198807 -0.228144 -0.13564 -0.344162 -0.233919 -27.081 -24.8571 -23.6266 -21.962 -20.4434 -18.8765 -17.3479 -15.6969 -14.5539 -11.3647 -26.2134 -25.3314 -23.456 -22.0145 -20.4273 -18.8881 -17.3108 -15.8559 -13.893 -13.9762 -26.2134 -25.3314 -23.456 -22.0145 -20.4273 -18.8881 -17.3108 -15.8559 -13.893 -13.9762 -27.081 -24.8571 -23.6266 -21.962 -20.4434 -18.8765 -17.3479 -15.6969 -14.5539 -11.3647 -11.6551 -8.49285 -7.3672 -5.65619 -4.10387 -2.50181 -0.952228 0.770995 1.84657 5.20472 -9.22516 -9.21535 -7.16897 -5.70796 -4.08824 -2.51827 -0.895827 0.552978 2.64943 2.46331 -9.22516 -9.21535 -7.16897 -5.70796 -4.08824 -2.51827 -0.895827 0.552978 2.64943 2.46331 -11.6551 -8.49285 -7.3672 -5.65619 -4.10387 -2.50181 -0.952228 0.770995 1.84657 5.20472 6.17428 10.2875 13.2496 16.5192 19.7065 22.9191 26.1127 29.3503 32.4626 35.8984 7.60651 9.90345 13.3515 16.4921 19.7149 22.9124 26.129 29.3015 32.5993 35.5737 7.60651 9.90345 13.3515 16.4921 19.7149 22.9124 26.129 29.3015 32.5993 35.5737 6.17428 10.2875 13.2496 16.5192 19.7065 22.9191 26.1127 29.3503 32.4626 35.8984 
</DataArray>
<DataArray Name="Stress_13" format="ascii" type="Float64">
-140.796 -88.1737 -135.987 -57.6915 135.987 57.6915 140.796 88.1737 7.73359 17.0158 -25.6372 0.921132 25.6372 -0.921132 -7.73359 -17.0158 26.0126 19.2743 7.583 -2.05834 -7.583 2.05834 -26.0126 -19.2743 -90.1558 -140.009 -29.9568 -126.977 29.9568 126.977 90.1558 140.009 -35.4951 -49.4176 -30.4576 -19.2907 -6.24791 6.24791 19.2907 30.4576 49.4176 35.4951 -48.7217 -46.0154 -31.3335 -19.0618 -6.32068 6.32068 19.0618 31.3335 46.0154 48.7217 -33.0251 -49.8631 -30.3862 -19.299 -6.24845 6.24845 19.299 30.3862 49.8631 33.0251 -38.4891 -48.4577 -30.7481 -19.2045 -6.27851 6.27851 19.2045 30.7481 48.4577 38.4891 -34.3103 -49.4659 -30.5037 -19.2647 -6.26047 6.26047 19.2647 30.5037 49.4659 34.3103 -32.7485 -49.8677 -30.4002 -19.2917 -6.25188 6.25188 19.2917 30.4002 49.8677 32.7485 -46.8924 -46.3587 -31.2742 -19.0704 -6.32009 6.32009 19.0704 31.2742 46.3587 46.8924 -28.8057 -51.0109 -30.0764 -19.3834 -6.22058 6.22058 19.3834 30.0764 51.0109 28.8057 -18.9943 -4.04251 -6.90581 -6.35785 -6.46208 -6.44524 -6.43232 -6.51928 -6.06074 -8.45793 -2.82518 -17.7769 -14.9136 -15.4616 -15.3574 -15.3742 -15.3871 -15.3002 -15.7587 -13.3615 2.82518 17.7769 14.9136 15.4616 15.3574 15.3742 15.3871 15.3002 15.7587 13.3615 18.9943 4.04251 6.90581 6.35785 6.46208 6.44524 6.43232 6.51928 6.06074 8.45793 -69.9789 -61.1389 -62.8549 -62.5223 -62.5848 -62.583 -62.5302 -62.8146 -61.3462 -68.9127 -63.506 -72.3459 -70.63 -70.9625 -70.9 -70.9019 -70.9546 -70.6703 -72.1387 -64.5721 63.506 72.3459 70.63 70.9625 70.9 70.9019 70.9546 70.6703 72.1387 64.5721 69.9789 61.1389 62.8549 62.5223 62.5848 62.583 62.5302 62.8146 61.3462 68.9127 -41.5931 -39.7092 -40.1742 -40.0608 -40.083 -40.101 -40.0014 -40.4112 -38.7508 -45.4724 -47.7031 -49.587 -49.122 -49.2354 -49.2132 -49.1952 -49.2948 -48.885 -50.5454 -43.8238 47.7031 49.587 49.122 49.2354 49.2132 49.1952 49.2948 48.885 50.5454 43.8238 41.5931 39.7092 40.1742 40.0608 40.083 40.101 40.0014 40.4112 38.7508 45.4724 
</DataArray>
<DataArray Name="Stress_23" format="ascii" type="Float64">