<?xml version="1.0"?>
<VTKFile byte_order="LittleEndian" type="UnstructuredGrid" version="0.1">
<UnstructuredGrid>
<Piece NumberOfCells="288" NumberOfPoints="384">
<PointData>
<DataArray Name="Warping_X" format="ascii" type="Float64">
-0 -0 0 0 0 0 0 0 0 0 0 0 0 0 0 0 0 0 0 0 0 0 0 0 0 0 0 0 0 0 0 0 0 0 0 0 0 0 0 0 -0 0 0 0 0 0 0 0 0 0 0 0 0 0 0 0 0 0 0 0 0 0 0 0 0 0 0 0 0 0 0 0 0 0 0 0 0 0 0 0 0 0 0 0 0 0 0 0 0 0 0 0 0 0 0 0 0 0 0 0 -0 0 0 0 0 0 0 0 0 0 0 0 0 0 0 0 0 0 0 0 0 0 0 0 0 0 0 0 0 0 0 0 0 0 0 0 0 0 0 0 0 0 0 0 0 0 0 0 -0 0 0 0 0 0 0 0 0 0 0 0 0 0 0 0 0 0 0 0 0 0 0 0 0 0 0 0 0 0 0 0 0 0 0 0 -0 0 0 0 0 0 0 0 0 0 0 0 -0 0 0 0 0 0 0 0 0 0 0 0 0 0 0 0 0 0 0 0 0 0 0 0 0 0 0 0 0 0 0 0 0 0 0 0 0 0 0 0 0 0 0 0 0 0 0 0 0 0 0 0 0 0 0 0 0 0 0 0 0 0 0 0 0 0 0 0 0 0 0 0 0 0 0 0 0 0 0 0 0 0 0 0 0 0 0 0 0 0 0 0 0 0 0 0 -0 0 0 0 0 0 0 0 0 0 0 0 0 0 0 0 0 0 0 0 0 0 0 0 0 0 0 0 0 0 0 0 0 0 0 0 0 0 0 0 0 0 0 0 0 0 0 0 0 0 0 0 0 0 0 0 0 0 0 0 0 0 0 0 0 0 0 0 0 0 0 0 0 0 0 0 0 0 0 0 0 0 0 0 0 0 0 0 0 0 0 0 
</DataArray>
<DataArray Name="Warping_Y" format="ascii" type="Float64">
0 -0 0 0 0 0 0 0 0 0 0 0 0 0 0 0 0 0 0 0 0 0 0 0 0 0 0 0 0 0 0 0 0 0 0 0 0 0 0 0 0 0 0 0 0 0 0 0 0 0 0 0 -0 0 0 0 0 0 0 0 0 0 0 0 0 0 0 0 0 0 0 0 0 0 0 0 0 0 0 0 0 0 0 0 0 0 0 0 0 0 0 0 0 0 0 0 0 0 0 0 -0 0 0 0 0 0 0 0 0 0 0 0 0 0 0 0 0 0 0 0 0 0 0 0 0 0 0 0 0 0 0 0 0 0 0 0 0 0 0 0 0 0 0 0 0 0 0 0 0 0 0 0 0 0 0 0 0 0 0 0 0 0 0 0 0 0 0 0 0 0 0 0 0 0 0 0 0 0 0 0 0 0 0 0 0 0 0 0 0 0 0 0 0 0 0 0 -0 0 0 0 0 0 0 0 0 0 0 0 0 0 0 0 0 0 0 0 0 0 0 0 0 0 0 0 0 0 0 0 0 0 0 0 0 0 0 0 0 0 0 0 0 0 0 0 -0 0 0 0 0 0 0 0 0 0 0 0 0 0 0 0 0 0 0 0 0 0 0 0 0 0 0 0 0 0 0 0 0 0 0 0 0 0 0 0 0 0 0 0 0 0 0 0 -0 0 0 0 0 0 0 0 0 0 0 0 0 0 0 0 0 0 0 0 0 0 0 0 0 0 0 0 0 0 0 0 0 0 0 0 0 0 0 0 0 0 0 0 0 0 0 0 0 0 0 0 0 0 0 0 0 0 0 0 0 0 0 0 0 0 0 0 0 0 0 0 0 0 0 0 0 0 0 0 0 0 0 0 0 0 0 0 0 0 0 0 
</DataArray>
<DataArray Name="Warping_Z" format="ascii" type="Float64">
0 0 0 0 0 0 0 0 0 0 0 0 0 0 0 0 0 0 0 0 0 0 0 0 0 0 0 0 0 0 0 0 0 0 0 0 0 0 0 0 0 0 0 0 0 0 0 0 0 0 0 0 0 0 0 0 0 0 0 0 0 0 0 0 0 0 0 0 0 0 0 0 0 0 0 0 0 0 0 0 0 0 0 0 0 0 0 0 0 0 0 0 0 0 0 0 0 0 0 0 0 0 0 0 0 0 0 0 0 0 0 0 0 0 0 0 0 0 0 0 0 0 0 0 0 0 0 0 0 0 0 0 0 0 0 0 0 0 0 0 0 0 0 0 0 0 0 0 0 0 0 0 0 0 0 0 0 0 0 0 0 0 0 0 0 0 0 0 0 0 0 0 0 0 0 0 0 0 0 0 0 0 0 0 0 0 0 0 0 0 0 0 0 0 0 0 0 0 0 0 0 0 0 0 0 0 0 0 0 0 0 0 0 0 0 0 0 0 0 0 0 0 0 0 0 0 0 0 0 0 0 0 0 0 0 0 0 0 0 0 0 0 0 0 0 0 0 0 0 0 0 0 0 0 0 0 0 0 0 0 0 0 0 0 0 0 0 0 0 0 0 0 0 0 0 0 0 0 0 0 0 0 0 0 0 0 0 0 0 0 0 0 0 0 0 0 0 0 0 0 0 0 0 0 0 0 0 0 0 0 0 0 0 0 0 0 0 0 0 0 0 0 0 0 0 0 0 0 0 0 0 0 0 0 0 0 0 0 0 0 0 0 0 0 0 0 0 0 0 0 0 0 0 0 0 0 0 0 0 0 0 0 0 0 0 0 0 0 0 0 0 0 0 0 0 0 0 0 0 0 0 0 0 0 
</DataArray>
</PointData>
<CellData>
<DataArray Name="MaterialId" format="ascii" type="Float64">
1 1 1 1 1 1 1 1 1 1 1 1 1 1 1 1 1 1 1 1 1 1 1 1 1 1 1 1 1 1 1 1 1 1 1 1 1 1 1 1 1 1 1 1 1 1 1 1 1 1 1 1 1 1 1 1 1 1 1 1 1 1 1 1 1 1 1 1 1 1 1 1 1 1 1 1 1 1 1 1 1 1 1 1 1 1 1 1 1 1 1 1 1 1 1 1 1 1 1 1 1 1 1 1 1 1 1 1 1 1 1 1 1 1 1 1 1 1 1 1 1 1 1 1 1 1 1 1 1 1 1 1 1 1 1 1 1 1 1 1 1 1 1 1 2 2 2 2 2 2 2 2 2 2 2 2 2 2 2 2 2 2 2 2 2 2 2 2 2 2 2 2 2 2 2 2 2 2 2 2 2 2 2 2 2 2 2 2 2 2 2 2 2 2 2 2 2 2 2 2 2 2 2 2 2 2 2 2 2 2 2 2 2 2 2 2 2 2 2 2 2 2 2 2 2 2 2 2 2 2 2 2 2 2 2 2 2 2 2 2 2 2 2 2 2 2 2 2 2 2 2 2 2 2 2 2 2 2 2 2 2 2 2 2 2 2 2 2 2 2 2 2 2 2 2 2 2 2 2 2 2 2 2 2 2 2 2 2 
</DataArray>
<DataArray Name="FiberAngle" format="ascii" type="Float64">
0 0 0 0 0 0 0 0 0 0 0 0 0 0 0 0 0 0 0 0 0 0 0 0 0 0 0 0 0 0 0 0 0 0 0 0 0 0 0 0 0 0 0 0 0 0 0 0 0 0 0 0 0 0 0 0 0 0 0 0 0 0 0 0 0 0 0 0 0 0 0 0 0 0 0 0 0 0 0 0 0 0 0 0 0 0 0 0 0 0 0 0 0 0 0 0 0 0 0 0 0 0 0 0 0 0 0 0 0 0 0 0 0 0 0 0 0 0 0 0 0 0 0 0 0 0 0 0 0 0 0 0 0 0 0 0 0 0 0 0 0 0 0 0 0 0 0 0 0 0 0 0 0 0 0 0 0 0 0 0 0 0 0 0 0 0 0 0 0 0 0 0 0 0 0 0 0 0 0 0 0 0 0 0 0 0 0 0 0 0 0 0 0 0 0 0 0 0 0 0 0 0 0 0 0 0 0 0 0 0 0 0 0 0 0 0 0 0 0 0 0 0 0 0 0 0 0 0 0 0 0 0 0 0 0 0 0 0 0 0 0 0 0 0 0 0 0 0 0 0 0 0 0 0 0 0 0 0 0 0 0 0 0 0 0 0 0 0 0 0 0 0 0 0 0 0 0 0 0 0 0 0 0 0 0 0 0 0 
</DataArray>
<DataArray Name="Strain_11" format="ascii" type="Float64">
0 0 0 0 0 0 0 0 0 0 0 0 0 0 0 0 0 0 0 0 0 0 0 0 0 0 0 0 0 0 0 0 0 0 0 0 0 0 0 0 0 0 0 0 0 0 0 0 0 0 0 0 0 0 0 0 0 0 0 0 0 0 0 0 0 0 0 0 0 0 0 0 0 0 0 0 0 0 0 0 0 0 0 0 0 0 0 0 0 0 0 0 0 0 0 0 0 0 0 0 0 0 0 0 0 0 0 0 0 0 0 0 0 0 0 0 0 0 0 0 0 0 0 0 0 0 0 0 0 0 0 0 0 0 0 0 0 0 0 0 0 0 0 0 0 0 0 0 0 0 0 0 0 0 0 0 0 0 0 0 0 0 0 0 0 0 0 0 0 0 0 0 0 0 0 0 0 0 0 0 0 0 0 0 0 0 0 0 0 0 0 0 0 0 0 0 0 0 0 0 0 0 0 0 0 0 0 0 0 0 0 0 0 0 0 0 0 0 0 0 0 0 0 0 0 0 0 0 0 0 0 0 0 0 0 0 0 0 0 0 0 0 0 0 0 0 0 0 0 0 0 0 0 0 0 0 0 0 0 0 0 0 0 0 0 0 0 0 0 0 0 0 0 0 0 0 0 0 0 0 0 0 0 0 0 0 0 0 
</DataArray>
<DataArray Name="Strain_22" format="ascii" type="Float64">
0 0 0 0 0 0 0 0 0 0 0 0 0 0 0 0 0 0 0 0 0 0 0 0 0 0 0 0 0 0 0 0 0 0 0 0 0 0 0 0 0 0 0 0 0 0 0 0 0 0 0 0 0 0 0 0 0 0 0 0 0 0 0 0 0 0 0 0 0 0 0 0 0 0 0 0 0 0 0 0 0 0 0 0 0 0 0 0 0 0 0 0 0 0 0 0 0 0 0 0 0 0 0 0 0 0 0 0 0 0 0 0 0 0 0 0 0 0 0 0 0 0 0 0 0 0 0 0 0 0 0 0 0 0 0 0 0 0 0 0 0 0 0 0 0 0 0 0 0 0 0 0 0 0 0 0 0 0 0 0 0 0 0 0 0 0 0 0 0 0 0 0 0 0 0 0 0 0 0 0 0 0 0 0 0 0 0 0 0 0 0 0 0 0 0 0 0 0 0 0 0 0 0 0 0 0 0 0 0 0 0 0 0 0 0 0 0 0 0 0 0 0 0 0 0 0 0 0 0 0 0 0 0 0 0 0 0 0 0 0 0 0 0 0 0 0 0 0 0 0 0 0 0 0 0 0 0 0 0 0 0 0 0 0 0 0 0 0 0 0 0 0 0 0 0 0 0 0 0 0 0 0 0 0 0 0 0 0 
</DataArray>
<DataArray Name="Strain_12" format="ascii" type="Float64">
0 0 0 0 0 0 0 0 0 0 0 0 0 0 0 0 0 0 0 0 0 0 0 0 0 0 0 0 0 0 0 0 0 0 0 0 0 0 0 0 0 0 0 0 0 0 0 0 0 0 0 0 0 0 0 0 0 0 0 0 0 0 0 0 0 0 0 0 0 0 0 0 0 0 0 0 0 0 0 0 0 0 0 0 0 0 0 0 0 0 0 0 0 0 0 0 0 0 0 0 0 0 0 0 0 0 0 0 0 0 0 0 0 0 0 0 0 0 0 0 0 0 0 0 0 0 0 0 0 0 0 0 0 0 0 0 0 0 0 0 0 0 0 0 0 0 0 0 0 0 0 0 0 0 0 0 0 0 0 0 0 0 0 0 0 0 0 0 0 0 0 0 0 0 0 0 0 0 0 0 0 0 0 0 0 0 0 0 0 0 0 0 0 0 0 0 0 0 0 0 0 0 0 0 0 0 0 0 0 0 0 0 0 0 0 0 0 0 0 0 0 0 0 0 0 0 0 0 0 0 0 0 0 0 0 0 0 0 0 0 0 0 0 0 0 0 0 0 0 0 0 0 0 0 0 0 0 0 0 0 0 0 0 0 0 0 0 0 0 0 0 0 0 0 0 0 0 0 0 0 0 0 0 0 0 0 0 0 
</DataArray>
<DataArray Name="Strain_13" format="ascii" type="Float64">
0.269642 0.804319 1.32529 1.8235 2.29065 2.71859 3.09996 3.42811 3.69754 3.90438 4.04404 4.11426 0.26124 0.779273 1.28397 1.76664 2.21916 2.6338 3.00328 3.3212 3.58238 3.78255 3.91793 3.98595 0.254375 0.758878 1.25034 1.72026 2.16095 2.5647 2.92459 3.23411 3.48832 3.6834 3.81523 3.88138 4.11421 4.04382 3.90391 3.69759 3.42848 3.09998 2.71853 2.29048 1.82352 1.3251 0.804143 0.269703 3.98583 3.91766 3.78241 3.58242 3.32125 3.00332 2.63381 2.21919 1.76657 1.28375 0.779174 0.261271 3.88113 3.81489 3.68347 3.48847 3.23396 2.92449 2.56487 2.16117 1.72011 1.24998 0.758858 0.254523 -0.269703 -0.804143 -1.3251 -1.82352 -2.29048 -2.71853 -3.09998 -3.42848 -3.69759 -3.90391 -4.04382 -4.11421 -0.261271 -0.779174 -1.28375 -1.76657 -2.21919 -2.63381 -3.00332 -3.32125 -3.58242 -3.78241 -3.91766 -3.98583 -0.254523 -0.758858 -1.24998 -1.72011 -2.16117 -2.56487 -2.92449 -3.23396 -3.48847 -3.68347 -3.81489 -3.88113 -4.11426 -4.04404 -3.90438 -3.69754 -3.42811 -3.09996 -2.71859 -2.29065 -1.8235 -1.32529 -0.804319 -0.269642 -3.98595 -3.91793 -3.78255 -3.58238 -3.3212 -3.00328 -2.6338 -2.21916 -1.76664 -1.28397 -0.779273 -0.26124 -3.88138 -3.81523 -3.6834 -3.48832 -3.23411 -2.92459 -2.5647 -2.16095 -1.72026 -1.25034 -0.758878 -0.254375 0.269642 0.804319 1.32529 1.8235 2.29065 2.71859 3.09996 3.42811 3.69754 3.90438 4.04404 4.11426 0.26124 0.779273 1.28397 1.76664 2.21916 2.6338 3.00328 3.3212 3.58238 3.78255 3.91793 3.98595 0.254375 0.758878 1.25034 1.72026 2.16095 2.5647 2.92459 3.23411 3.48832 3.6834 3.81523 3.88138 4.11421 4.04382 3.90391 3.69759 3.42848 3.09998 2.71853 2.29048 1.82352 1.3251 0.804143 0.269703 3.98583 3.91766 3.78241 3.58242 3.32125 3.00332 2.63381 2.21919 1.76657 1.28375 0.779174 0.261271 3.88113 3.81489 3.68347 3.48847 3.23396 2.92449 2.56487 2.16117 1.72011 1.24998 0.758858 0.254523 -0.269703 -0.804143 -1.3251 -1.82352 -2.29048 -2.71853 -3.09998 -3.42848 -3.69759 -3.90391 -4.04382 -4.11421 -0.261271 -0.779174 -1.28375 -1.76657 -2.21919 -2.63381 -3.00332 -3.32125 -3.58242 -3.78241 -3.91766 -3.98583 -0.254523 -0.758858 -1.24998 -1.72011 -2.16117 -2.56487 -2.92449 -3.23396 -3.48847 -3.68347 -3.81489 -3.88113 -4.11426 -4.04404 -3.90438 -3.69754 -3.42811 -3.09996 -2.71859 -2.29065 -1.8235 -1.32529 -0.804319 -0.269642 -3.98595 -3.91793 -3.78255 -3.58238 -3.3212 -3.00328 -2.6338 -2.21916 -1.76664 -1.28397 -0.779273 -0.26124 -3.88138 -3.81523 -3.6834 -3.48832 -3.23411 -2.92459 -2.5647 -2.16095 -1.72026 -1.25034 -0.758878 -0.254375 
</DataArray>
<DataArray Name="Strain_23" format="ascii" type="Float64">
-6.64855 -6.57819 -6.43859 -6.23218 -5.96257 -5.63416 -5.25281 -4.82481 -4.35807 -3.85986 -3.3387 -2.804 -6.63552 -6.56737 -6.43212 -6.23216 -5.97087 -5.65281 -5.28328 -4.8688 -4.41642 -3.9336 -3.42895 -2.91093 -6.65035 -6.58396 -6.45231 -6.2576 -6.00312 -5.69331 -5.33364 -4.9301 -4.4894 -4.01916 -3.52788 -3.02359 -2.2646 -1.7297 -1.20887 -0.711277 -0.243829 0.184323 0.565653 0.8937 1.16322 1.37001 1.50919 1.5797 -2.3883 -1.87011 -1.36557 -0.883201 -0.430494 -0.015738 0.353673 0.671515 0.932656 1.13283 1.26801 1.33608 -2.51458 -2.00984 -1.51858 -1.04902 -0.608069 -0.204066 0.155532 0.464955 0.719037 0.914324 1.04609 1.11205 1.5797 1.50919 1.37001 1.16322 0.8937 0.565653 0.184323 -0.243829 -0.711277 -1.20887 -1.7297 -2.2646 1.33608 1.26801 1.13283 0.932656 0.671515 0.353673 -0.015738 -0.430494 -0.883201 -1.36557 -1.87011 -2.3883 1.11205 1.04609 0.914324 0.719037 0.464955 0.155532 -0.204066 -0.608069 -1.04902 -1.51858 -2.00984 -2.51458 -2.804 -3.3387 -3.85986 -4.35807 -4.82481 -5.25281 -5.63416 -5.96257 -6.23218 -6.43859 -6.57819 -6.64855 -2.91093 -3.42895 -3.9336 -4.41642 -4.8688 -5.28328 -5.65281 -5.97087 -6.23216 -6.43212 -6.56737 -6.63552 -3.02359 -3.52788 -4.01916 -4.4894 -4.9301 -5.33364 -5.69331 -6.00312 -6.2576 -6.45231 -6.58396 -6.65035 -6.64855 -6.57819 -6.43859 -6.23218 -5.96257 -5.63416 -5.25281 -4.82481 -4.35807 -3.85986 -3.3387 -2.804 -6.63552 -6.56737 -6.43212 -6.23216 -5.97087 -5.65281 -5.28328 -4.8688 -4.41642 -3.9336 -3.42895 -2.91093 -6.65035 -6.58396 -6.45231 -6.2576 -6.00312 -5.69331 -5.33364 -4.9301 -4.4894 -4.01916 -3.52788 -3.02359 -2.2646 -1.7297 -1.20887 -0.711277 -0.243829 0.184323 0.565653 0.8937 1.16322 1.37001 1.50919 1.5797 -2.3883 -1.87011 -1.36557 -0.883201 -0.430494 -0.015738 0.353673 0.671515 0.932656 1.13283 1.26801 1.33608 -2.51458 -2.00984 -1.51858 -1.04902 -0.608069 -0.204066 0.155532 0.464955 0.719037 0.914324 1.04609 1.11205 1.5797 1.50919 1.37001 1.16322 0.8937 0.565653 0.184323 -0.243829 -0.711277 -1.20887 -1.7297 -2.2646 1.33608 1.26801 1.13283 0.932656 0.671515 0.353673 -0.015738 -0.430494 -0.883201 -1.36557 -1.87011 -2.3883 1.11205 1.04609 0.914324 0.719037 0.464955 0.155532 -0.204066 -0.608069 -1.04902 -1.51858 -2.00984 -2.51458 -2.804 -3.3387 -3.85986 -4.35807 -4.82481 -5.25281 -5.63416 -5.96257 -6.23218 -6.43859 -6.57819 -6.64855 -2.91093 -3.42895 -3.9336 -4.41642 -4.8688 -5.28328 -5.65281 -5.97087 -6.23216 -6.43212 -6.56737 -6.63552 -3.02359 -3.52788 -4.01916 -4.4894 -4.9301 -5.33364 -5.69331 -6.00312 -6.2576 -6.45231 -6.58396 -6.65035 
</DataArray>
<DataArray Name="Strain_33" format="ascii" type="Float64">
0 0 0 0 0 0 0 0 0 0 0 0 0 0 0 0 0 0 0 0 0 0 0 0 0 0 0 0 0 0 0 0 0 0 0 0 0 0 0 0 0 0 0 0 0 0 0 0 0 0 0 0 0 0 0 0 0 0 0 0 0 0 0 0 0 0 0 0 0 0 0 0 0 0 0 0 0 0 0 0 0 0 0 0 0 0 0 0 0 0 0 0 0 0 0 0 0 0 0 0 0 0 0 0 0 0 0 0 0 0 0 0 0 0 0 0 0 0 0 0 0 0 0 0 0 0 0 0 0 0 0 0 0 0 0 0 0 0 0 0 0 0 0 0 0 0 0 0 0 0 0 0 0 0 0 0 0 0 0 0 0 0 0 0 0 0 0 0 0 0 0 0 0 0 0 0 0 0 0 0 0 0 0 0 0 0 0 0 0 0 0 0 0 0 0 0 0 0 0 0 0 0 0 0 0 0 0 0 0 0 0 0 0 0 0 0 0 0 0 0 0 0 0 0 0 0 0 0 0 0 0 0 0 0 0 0 0 0 0 0 0 0 0 0 0 0 0 0 0 0 0 0 0 0 0 0 0 0 0 0 0 0 0 0 0 0 0 0 0 0 0 0 0 0 0 0 0 0 0 0 0 0 0 0 0 0 0 0 
</DataArray>
<DataArray Name="Stress_11" format="ascii" type="Float64">
0 0 0 0 0 0 0 0 0 0 0 0 0 0 0 0 0 0 0 0 0 0 0 0 0 0 0 0 0 0 0 0 0 0 0 0 0 0 0 0 0 0 0 0 0 0 0 0 0 0 0 0 0 0 0 0 0 0 0 0 0 0 0 0 0 0 0 0 0 0 0 0 0 0 0 0 0 0 0 0 0 0 0 0 0 0 0 0 0 0 0 0 0 0 0 0 0 0 0 0 0 0 0 0 0 0 0 0 0 0 0 0 0 0 0 0 0 0 0 0 0 0 0 0 0 0 0 0 0 0 0 0 0 0 0 0 0 0 0 0 0 0 0 0 0 0 0 0 0 0 0 0 0 0 0 0 0 0 0 0 0 0 0 0 0 0 0 0 0 0 0 0 0 0 0 0 0 0 0 0 0 0 0 0 0 0 0 0 0 0 0 0 0 0 0 0 0 0 0 0 0 0 0 0 0 0 0 0 0 0 0 0 0 0 0 0 0 0 0 0 0 0 0 0 0 0 0 0 0 0 0 0 0 0 0 0 0 0 0 0 0 0 0 0 0 0 0 0 0 0 0 0 0 0 0 0 0 0 0 0 0 0 0 0 0 0 0 0 0 0 0 0 0 0 0 0 0 0 0 0 0 0 0 0 0 0 0 0 
</DataArray>
<DataArray Name="Stress_22" format="ascii" type="Float64">
0 0 0 0 0 0 0 0 0 0 0 0 0 0 0 0 0 0 0 0 0 0 0 0 0 0 0 0 0 0 0 0 0 0 0 0 0 0 0 0 0 0 0 0 0 0 0 0 0 0 0 0 0 0 0 0 0 0 0 0 0 0 0 0 0 0 0 0 0 0 0 0 0 0 0 0 0 0 0 0 0 0 0 0 0 0 0 0 0 0 0 0 0 0 0 0 0 0 0 0 0 0 0 0 0 0 0 0 0 0 0 0 0 0 0 0 0 0 0 0 0 0 0 0 0 0 0 0 0 0 0 0 0 0 0 0 0 0 0 0 0 0 0 0 0 0 0 0 0 0 0 0 0 0 0 0 0 0 0 0 0 0 0 0 0 0 0 0 0 0 0 0 0 0 0 0 0 0 0 0 0 0 0 0 0 0 0 0 0 0 0 0 0 0 0 0 0 0 0 0 0 0 0 0 0 0 0 0 0 0 0 0 0 0 0 0 0 0 0 0 0 0 0 0 0 0 0 0 0 0 0 0 0 0 0 0 0 0 0 0 0 0 0 0 0 0 0 0 0 0 0 0 0 0 0 0 0 0 0 0 0 0 0 0 0 0 0 0 0 0 0 0 0 0 0 0 0 0 0 0 0 0 0 0 0 0 0 0 
</DataArray>
<DataArray Name="Stress_12" format="ascii" type="Float64">
0 0 0 0 0 0 0 0 0 0 0 0 0 0 0 0 0 0 0 0 0 0 0 0 0 0 0 0 0 0 0 0 0 0 0 0 0 0 0 0 0 0 0 0 0 0 0 0 0 0 0 0 0 0 0 0 0 0 0 0 0 0 0 0 0 0 0 0 0 0 0 0 0 0 0 0 0 0 0 0 0 0 0 0 0 0 0 0 0 0 0 0 0 0 0 0 0 0 0 0 0 0 0 0 0 0 0 0 0 0 0 0 0 0 0 0 0 0 0 0 0 0 0 0 0 0 0 0 0 0 0 0 0 0 0 0 0 0 0 0 0 0 0 0 0 0 0 0 0 0 0 0 0 0 0 0 0 0 0 0 0 0 0 0 0 0 0 0 0 0 0 0 0 0 0 0 0 0 0 0 0 0 0 0 0 0 0 0 0 0 0 0 0 0 0 0 0 0 0 0 0 0 0 0 0 0 0 0 0 0 0 0 0 0 0 0 0 0 0 0 0 0 0 0 0 0 0 0 0 0 0 0 0 0 0 0 0 0 0 0 0 0 0 0 0 0 0 0 0 0 0 0 0 0 0 0 0 0 0 0 0 0 0 0 0 0 0 0 0 0 0 0 0 0 0 0 0 0 0 0 0 0 0 0 0 0 0 0 
</DataArray>
<DataArray Name="Stress_13" format="ascii" type="Float64">
11.2352 33.5136 55.2208 75.9796 95.4447 113.275 129.166 142.839 154.066 162.684 168.503 171.429 10.8851 32.47 53.4992 73.6108 92.4658 109.743 125.138 138.385 149.267 157.607 163.248 166.083 10.599 31.6202 52.0979 71.6781 90.0404 106.863 121.859 134.756 145.348 153.476 158.969 161.725 171.427 168.494 162.664 154.067 142.854 129.167 113.273 95.4376 75.9807 55.2128 33.5062 11.2377 166.078 163.237 157.602 149.269 138.387 125.139 109.743 92.4672 73.6075 53.49 32.4658 10.8864 161.715 158.955 153.479 145.354 134.749 121.855 106.87 90.0495 71.672 52.0831 31.6193 10.6052 -11.2377 -33.5062 -55.2128 -75.9807 -95.4376 -113.273 -129.167 -142.854 -154.067 -162.664 -168.494 -171.427 -10.8864 -32.4658 -53.49 -73.6075 -92.4672 -109.743 -125.139 -138.387 -149.269 -157.602 -163.237 -166.078 -10.6052 -31.6193 -52.0831 -71.672 -90.0495 -106.87 -121.855 -134.749 -145.354 -153.479 -158.955 -161.715 -171.429 -168.503 -162.684 -154.066 -142.839 -129.166 -113.275 -95.4447 -75.9796 -55.2208 -33.5136 -11.2352 -166.083 -163.248 -157.607 -149.267 -138.385 -125.138 -109.743 -92.4658 -73.6108 -53.4992 -32.47 -10.8851 -161.725 -158.969 -153.476 -145.348 -134.756 -121.859 -106.863 -90.0404 -71.6781 -52.0979 -31.6202 -10.599 11.2352 33.5136 55.2208 75.9796 95.4447 113.275 129.166 142.839 154.066 162.684 168.503 171.429 10.8851 32.47 53.4992 73.6108 92.4658 109.743 125.138 138.385 149.267 157.607 163.248 166.083 10.599 31.6202 52.0979 71.6781 90.0404 106.863 121.859 134.756 145.348 153.476 158.969 161.725 171.427 168.494 162.664 154.067 142.854 129.167 113.273 95.4376 75.9807 55.2128 33.5062 11.2377 166.078 163.237 157.602 149.269 138.387 125.139 109.743 92.4672 73.6075 53.49 32.4658 10.8864 161.715 158.955 153.479 145.354 134.749 121.855 106.87 90.0495 71.672 52.0831 31.6193 10.6052 -11.2377 -33.5062 -55.2128 -75.9807 -95.4376 -113.273 -129.167 -142.854 -154.067 -162.664 -168.494 -171.427 -10.8864 -32.4658 -53.49 -73.6075 -92.4672 -109.743 -125.139 -138.387 -149.269 -157.602 -163.237 -166.078 -10.6052 -31.6193 -52.0831 -71.672 -90.0495 -106.87 -121.855 -134.749 -145.354 -153.479 -158.955 -161.715 -171.429 -168.503 -162.684 -154.066 -142.839 -129.166 -113.275 -95.4447 -75.9796 -55.2208 -33.5136 -11.2352 -166.083 -163.248 -157.607 -149.267 -138.385 -125.138 -109.743 -92.4658 -73.6108 -53.4992 -32.47 -10.8851 -161.725 -158.969 -153.476 -145.348 -134.756 -121.859 -106.863 -90.0404 -71.6781 -52.0979 -31.6202 -10.599 
</DataArray>
<DataArray Name="Stress_23" format="ascii" type="Float64">
-277.025 -274.094 -268.277 -259.676 -248.442 -234.759 -218.869 -201.035 -181.588 -160.829 -139.114 -116.834 -276.482 -273.643 -268.007 -259.675 -248.788 -235.536 -220.139 -202.868 -184.019 -163.901 -142.874 -121.29 -277.1 -274.334 -268.848 -260.736 -250.132 -237.223 -222.237 -205.423 -187.06 -167.466 -146.996 -125.984 -94.3592 -72.0714 -50.37 -29.6368 -10.1596 7.68017 23.5691 37.2378 48.4677 57.0842 62.8832 65.8215 -99.5131 -77.9219 -56.8991 -36.8003 -17.9374 -0.655754 14.7365 27.98 38.861 47.2015 52.8343 55.6705 -104.775 -83.7441 -63.2745 -43.7093 -25.3364 -8.50281 6.48055 19.3733 29.9601 38.0971 43.5874 46.3359 65.8215 62.8832 57.0842 48.4677 37.2378 23.5691 7.68017 -10.1596 -29.6368 -50.37 -72.0714 -94.3592 55.6705 52.8343 47.2015 38.861 27.98 14.7365 -0.655754 -17.9374 -36.8003 -56.8991 -77.9219 -99.5131 46.3359 43.5874 38.0971 29.9601 19.3733 6.48055 -8.50281 -25.3364 -43.7093 -63.2745 -83.7441 -104.775 -116.834 -139.114 -160.829 -181.588 -201.035 -218.869 -234.759 -248.442 -259.676 -268.277 -274.094 -277.025 -121.29 -142.874 -163.901 -184.019 -202.868 -220.139 -235.536 -248.788 -259.675 -268.007 -273.643 -276.482 -125.984 -146.996 -167.466 -187.06 -205.423 -222.237 -237.223 -250.132 -260.736 -268.848 -274.334 -277.1 -277.025 -274.094 -268.277 -259.676 -248.442 -234.759 -218.869 -201.035 -181.588 -160.829 -139.114 -116.834 -276.482 -273.643 -268.007 -259.675 -248.788 -235.536 -220.139 -202.868 -184.019 -163.901 -142.874 -121.29 -277.1 -274.334 -268.848 -260.736 -250.132 -237.223 -222.237 -205.423 -187.06 -167.466 -146.996 -125.984 -94.3592 -72.0714 -50.37 -29.6368 -10.1596 7.68017 23.5691 37.2378 48.4677 57.0842 62.8832 65.8215 -99.5131 -77.9219 -56.8991 -36.8003 -17.9374 -0.655754 14.7365 27.98 38.861 47.2015 52.8343 55.6705 -104.775 -83.7441 -63.2745 -43.7093 -25.3364 -8.50281 6.48055 19.3733 29.9601 38.0971 43.5874 46.3359 65.8215 62.8832 57.0842 48.4677 37.2378 23.5691 7.68017 -10.1596 -29.6368 -50.37 -72.0714 -94.3592 55.6705 52.8343 47.2015 38.861 27.98 14.7365 -0.655754 -17.9374 -36.8003 -56.8991 -77.9219 -99.5131 46.3359 43.5874 38.0971 29.9601 19.3733 6.48055 -8.50281 -25.3364 -43.7093 -63.2745 -83.7441 -104.775 -116.834 -139.114 -160.829 -181.588 -201.035 -218.869 -234.759 -248.442 -259.676 -268.277 -274.094 -277.025 -121.29 -142.874 -163.901 -184.019 -202.868 -220.139 -235.536 -248.788 -259.675 -268.007 -273.643 -276.482 -125.984 -146.996 -167.466 -187.06 -205.423 -222.237 -237.223 -250.132 -260.736 -268.848 -274.334 -277.1 
</DataArray>
<DataArray Name="Stress_33" format="ascii" type="Float64">
0 0 0 0 0 0 0 0 0 0 0 0 0 0 0 0 0 0 0 0 0 0 0 0 0 0 0 0 0 0 0 0 0 0 0 0 0 0 0 0 0 0 0 0 0 0 0 0 0 0 0 0 0 0 0 0 0 0 0 0 0 0 0 0 0 0 0 0 0 0 0 0 0 0 0 0 0 0 0 0 0 0 0 0 0 0 0 0 0 0 0 0 0 0 0 0 0 0 0 0 0 0 0 0 0 0 0 0 0 0 0 0 0 0 0 0 0 0 0 0 0 0 0 0 0 0 0 0 0 0 0 0 0 0 0 0 0 0 0 0 0 0 0 0 0 0 0 0 0 0 0 0 0 0 0 0 0 0 0 0 0 0 0 0 0 0 0 0 0 0 0 0 0 0 0 0 0 0 0 0 0 0 0 0 0 0 0 0 0 0 0 0 0 0 0 0 0 0 0 0 0 0 0 0 0 0 0 0 0 0 0 0 0 0 0 0 0 0 0 0 0 0 0 0 0 0 0 0 0 0 0 0 0 0 0 0 0 0 0 0 0 0 0 0 0 0 0 0 0 0 0 0 0 0 0 0 0 0 0 0 0 0 0 0 0 0 0 0 0 0 0 0 0 0 0 0 0 0 0 0 0 0 0 0 0 0 0 0 
</DataArray>
</CellData>
<Points>
<DataArray NumberOfComponents="3" format="ascii" type="Float64">
0 0.09 0 -0.06364 0.06364 0 -0.005886 0.089807 0 -0.011747 0.08923 0 -0.017558 0.088271 0 -0.023294 0.086933 0 -0.02893 0.085224 0 -0.034442 0.083149 0 -0.039806 0.080719 0 -0.045 0.077942 0 -0.050001 0.074832 0 -0.054789 0.071402 0 -0.059341 0.067666 0 -0.065997 0.065997 0 0 0.093333 0 -0.006104 0.093133 0 -0.012182 0.092535 0 -0.018208 0.09154 0 -0.024156 0.090153 0 -0.030001 0.08838 0 -0.035717 0.086229 0 -0.04128 0.083708 0 -0.046667 0.080829 0 -0.051853 0.077604 0 -0.056818 0.074046 0 -0.061539 0.070172 0 -0.068354 0.068354 0 0 0.096667 0 -0.006322 0.09646 0 -0.012618 0.09584 0 -0.018859 0.094809 0 -0.025019 0.093373 0 -0.031072 0.091537 0 -0.036993 0.089308 0 -0.042755 0.086698 0 -0.048333 0.083716 0 -0.053705 0.080375 0 -0.058847 0.076691 0 -0.063737 0.072678 0 -0.070711 0.070711 0 0 0.1 0 -0.00654 0.099786 0 -0.013053 0.099144 0 -0.019509 0.098079 0 -0.025882 0.096593 0 -0.032144 0.094693 0 -0.038268 0.092388 0 -0.044229 0.089687 0 -0.05 0.086603 0 -0.055557 0.083147 0 -0.060876 0.079335 0 -0.065935 0.075184 0 -0.09 0 0 -0.067666 0.059341 0 -0.071402 0.054789 0 -0.074832 0.050001 0 -0.077942 0.045 0 -0.080719 0.039806 0 -0.083149 0.034442 0 -0.085224 0.02893 0 -0.086933 0.023294 0 -0.088271 0.017558 0 -0.08923 0.011747 0 -0.089807 0.005886 0 -0.093333 0 0 -0.070172 0.061539 0 -0.074046 0.056818 0 -0.077604 0.051853 0 -0.080829 0.046667 0 -0.083708 0.04128 0 -0.086229 0.035717 0 -0.08838 0.030001 0 -0.090153 0.024156 0 -0.09154 0.018208 0 -0.092535 0.012182 0 -0.093133 0.006104 0 -0.096667 0 0 -0.072678 0.063737 0 -0.076691 0.058847 0 -0.080375 0.053705 0 -0.083716 0.048333 0 -0.086698 0.042755 0 -0.089308 0.036993 0 -0.091537 0.031072 0 -0.093373 0.025019 0 -0.094809 0.018859 0 -0.09584 0.012618 0 -0.09646 0.006322 0 -0.1 0 0 -0.075184 0.065935 0 -0.079335 0.060876 0 -0.083147 0.055557 0 -0.086603 0.05 0 -0.089687 0.044229 0 -0.092388 0.038268 0 -0.094693 0.032144 0 -0.096593 0.025882 0 -0.098079 0.019509 0 -0.099144 0.013053 0 -0.099786 0.00654 0 -0.06364 -0.06364 0 -0.089807 -0.005886 0 -0.08923 -0.011747 0 -0.088271 -0.017558 0 -0.086933 -0.023294 0 -0.085224 -0.02893 0 -0.083149 -0.034442 0 -0.080719 -0.039806 0 -0.077942 -0.045 0 -0.074832 -0.050001 0 -0.071402 -0.054789 0 -0.067666 -0.059341 0 -0.065997 -0.065997 0 -0.093133 -0.006104 0 -0.092535 -0.012182 0 -0.09154 -0.018208 0 -0.090153 -0.024156 0 -0.08838 -0.030001 0 -0.086229 -0.035717 0 -0.083708 -0.04128 0 -0.080829 -0.046667 0 -0.077604 -0.051853 0 -0.074046 -0.056818 0 -0.070172 -0.061539 0 -0.068354 -0.068354 0 -0.09646 -0.006322 0 -0.09584 -0.012618 0 -0.094809 -0.018859 0 -0.093373 -0.025019 0 -0.091537 -0.031072 0 -0.089308 -0.036993 0 -0.086698 -0.042755 0 -0.083716 -0.048333 0 -0.080375 -0.053705 0 -0.076691 -0.058847 0 -0.072678 -0.063737 0 -0.070711 -0.070711 0 -0.099786 -0.00654 0 -0.099144 -0.013053 0 -0.098079 -0.019509 0 -0.096593 -0.025882 0 -0.094693 -0.032144 0 -0.092388 -0.038268 0 -0.089687 -0.044229 0 -0.086603 -0.05 0 -0.083147 -0.055557 0 -0.079335 -0.060876 0 -0.075184 -0.065935 0 0 -0.09 0 -0.059341 -0.067666 0 -0.054789 -0.071402 0 -0.050001 -0.074832 0 -0.045 -0.077942 0 -0.039806 -0.080719 0 -0.034442 -0.083149 0 -0.02893 -0.085224 0 -0.023294 -0.086933 0 -0.017558 -0.088271 0 -0.011747 -0.08923 0 -0.005886 -0.089807 0 0 -0.093333 0 -0.061539 -0.070172 0 -0.056818 -0.074046 0 -0.051853 -0.077604 0 -0.046667 -0.080829 0 -0.04128 -0.083708 0 -0.035717 -0.086229 0 -0.030001 -0.08838 0 -0.024156 -0.090153 0 -0.018208 -0.09154 0 -0.012182 -0.092535 0 -0.006104 -0.093133 0 0 -0.096667 0 -0.063737 -0.072678 0 -0.058847 -0.076691 0 -0.053705 -0.080375 0 -0.048333 -0.083716 0 -0.042755 -0.086698 0 -0.036993 -0.089308 0 -0.031072 -0.091537 0 -0.025019 -0.093373 0 -0.018859 -0.094809 0 -0.012618 -0.09584 0 -0.006322 -0.09646 0 0 -0.1 0 -0.065935 -0.075184 0 -0.060876 -0.079335 0 -0.055557 -0.083147 0 -0.05 -0.086603 0 -0.044229 -0.089687 0 -0.038268 -0.092388 0 -0.032144 -0.094693 0 -0.025882 -0.096593 0 -0.019509 -0.098079 0 -0.013053 -0.099144 0 -0.00654 -0.099786 0 0.06364 -0.06364 0 0.005886 -0.089807 0 0.011747 -0.08923 0 0.017558 -0.088271 0 0.023294 -0.086933 0 0.02893 -0.085224 0 0.034442 -0.083149 0 0.039806 -0.080719 0 0.045 -0.077942 0 0.050001 -0.074832 0 0.054789 -0.071402 0 0.059341 -0.067666 0 0.065997 -0.065997 0 0.006104 -0.093133 0 0.012182 -0.092535 0 0.018208 -0.09154 0 0.024156 -0.090153 0 0.030001 -0.08838 0 0.035717 -0.086229 0 0.04128 -0.083708 0 0.046667 -0.080829 0 0.051853 -0.077604 0 0.056818 -0.074046 0 0.061539 -0.070172 0 0.068354 -0.068354 0 0.006322 -0.09646 0 0.012618 -0.09584 0 0.018859 -0.094809 0 0.025019 -0.093373 0 0.031072 -0.091537 0 0.036993 -0.089308 0 0.042755 -0.086698 0 0.048333 -0.083716 0 0.053705 -0.080375 0 0.058847 -0.076691 0 0.063737 -0.072678 0 0.070711 -0.070711 0 0.00654 -0.099786 0 0.013053 -0.099144 0 0.019509 -0.098079 0 0.025882 -0.096593 0 0.032144 -0.094693 0 0.038268 -0.092388 0 0.044229 -0.089687 0 0.05 -0.086603 0 0.055557 -0.083147 0 0.060876 -0.079335 0 0.065935 -0.075184 0 0.09 0 0 0.067666 -0.059341 0 0.071402 -0.054789 0 0.074832 -0.050001 0 0.077942 -0.045 0 0.080719 -0.039806 0 0.083149 -0.034442 0 0.085224 -0.02893 0 0.086933 -0.023294 0 0.088271 -0.017558 0 0.08923 -0.011747 0 0.089807 -0.005886 0 0.093333 0 0 0.070172 -0.061539 0 0.074046 -0.056818 0 0.077604 -0.051853 0 0.080829 -0.046667 0 0.083708 -0.04128 0 0.086229 -0.035717 0 0.08838 -0.030001 0 0.090153 -0.024156 0 0.09154 -0.018208 0 0.092535 -0.012182 0 0.093133 -0.006104 0 0.096667 0 0 0.072678 -0.063737 0 0.076691 -0.058847 0 0.080375 -0.053705 0 0.083716 -0.048333 0 0.086698 -0.042755 0 0.089308 -0.036993 0 0.091537 -0.031072 0 0.093373 -0.025019 0 0.094809 -0.018859 0 0.09584 -0.012618 0 0.09646 -0.006322 0 0.1 0 0 0.075184 -0.065935 0 0.079335 -0.060876 0 0.083147 -0.055557 0 0.086603 -0.05 0 0.089687 -0.044229 0 0.092388 -0.038268 0 0.094693 -0.032144 0 0.096593 -0.025882 0 0.098079 -0.019509 0 0.099144 -0.013053 0 0.099786 -0.00654 0 0.06364 0.06364 0 0.089807 0.005886 0 0.08923 0.011747 0 0.088271 0.017558 0 0.086933 0.023294 0 0.085224 0.02893 0 0.083149 0.034442 0 0.080719 0.039806 0 0.077942 0.045 0 0.074832 0.050001 0 0.071402 0.054789 0 0.067666 0.059341 0 0.065997 0.065997 0 0.093133 0.006104 0 0.092535 0.012182 0 0.09154 0.018208 0 0.090153 0.024156 0 0.08838 0.030001 0 0.086229 0.035717 0 0.083708 0.04128 0 0.080829 0.046667 0 0.077604 0.051853 0 0.074046 0.056818 0 0.070172 0.061539 0 0.068354 0.068354 0 0.09646 0.006322 0 0.09584 0.012618 0 0.094809 0.018859 0 0.093373 0.025019 0 0.091537 0.031072 0 0.089308 0.036993 0 0.086698 0.042755 0 0.083716 0.048333 0 0.080375 0.053705 0 0.076691 0.058847 0 0.072678 0.063737 0 0.070711 0.070711 0 0.099786 0.00654 0 0.099144 0.013053 0 0.098079 0.019509 0 0.096593 0.025882 0 0.094693 0.032144 0 0.092388 0.038268 0 0.089687 0.044229 0 0.086603 0.05 0 0.083147 0.055557 0 0.079335 0.060876 0 0.075184 0.065935 0 0.059341 0.067666 0 0.054789 0.071402 0 0.050001 0.074832 0 0.045 0.077942 0 0.039806 0.080719 0 0.034442 0.083149 0 0.02893 0.085224 0 0.023294 0.086933 0 0.017558 0.088271 0 0.011747 0.08923 0 0.005886 0.089807 0 0.061539 0.070172 0 0.056818 0.074046 0 0.051853 0.077604 0 0.046667 0.080829 0 0.04128 0.083708 0 0.035717 0.086229 0 0.030001 0.08838 0 0.024156 0.090153 0 0.018208 0.09154 0 0.012182 0.092535 0 0.006104 0.093133 0 0.063737 0.072678 0 0.058847 0.076691 0 0.053705 0.080375 0 0.048333 0.083716 0 0.042755 0.086698 0 0.036993 0.089308 0 0.031072 0.091537 0 0.025019 0.093373 0 0.018859 0.094809 0 0.012618 0.09584 0 0.006322 0.09646 0 0.065935 0.075184 0 0.060876 0.079335 0 0.055557 0.083147 0 0.05 0.086603 0 0.044229 0.089687 0 0.038268 0.092388 0 0.032144 0.094693 0 0.025882 0.096593 0 0.019509 0.098079 0 0.013053 0.099144 0 0.00654 0.099786 0 
</DataArray>
</Points>
<Cells>
<DataArray Name="connectivity" format="ascii" type="Int64">