<?xml version="1.0"?>
<VTKFile byte_order="LittleEndian" type="UnstructuredGrid" version="0.1">
<UnstructuredGrid>
<Piece NumberOfCells="535" NumberOfPoints="632">
<PointData>
</PointData>
<CellData>
<DataArray Name="MaterialId" format="ascii" type="Float64">
3 3 3 3 3 3 3 3 3 3 3 3 3 3 3 3 3 3 3 3 3 3 3 3 3 3 3 3 3 3 3 3 3 3 3 3 4 4 4 4 4 4 4 4 4 4 4 4 4 4 4 4 4 4 4 4 4 4 4 4 4 4 4 4 4 4 4 4 4 4 4 4 2 2 2 2 2 2 2 2 2 2 2 2 2 2 2 2 2 2 2 2 2 2 2 2 2 2 2 2 2 2 2 2 2 2 2 2 2 2 2 2 2 2 2 2 2 2 2 1 1 1 1 1 1 1 1 1 1 1 1 2 2 2 2 2 2 2 2 2 2 2 2 2 2 2 2 2 2 2 2 2 2 2 2 5 5 5 5 5 5 5 5 5 5 5 5 5 5 5 5 5 5 5 5 5 5 5 5 5 2 2 2 2 2 2 2 2 2 2 2 1 1 1 1 1 1 1 1 1 1 1 1 2 2 2 2 2 2 2 2 2 2 2 2 2 2 2 2 2 2 2 2 2 2 2 2 2 2 2 2 2 2 2 2 2 2 2 2 2 2 2 2 2 2 2 2 2 2 2 2 2 3 3 3 3 3 3 3 3 3 3 3 3 3 3 3 3 3 3 3 3 3 3 3 3 3 3 3 3 3 3 3 3 3 3 3 3 3 4 4 4 4 4 4 4 4 4 4 4 4 4 4 4 4 4 4 4 4 4 4 4 4 4 4 4 4 4 4 4 4 4 4 4 4 4 2 2 2 2 2 2 2 2 2 2 2 2 2 2 2 2 2 2 2 2 2 2 2 2 2 2 2 2 2 2 2 2 2 2 2 2 2 2 2 2 2 2 2 2 2 2 2 2 2 2 1 1 1 1 1 1 1 1 1 1 1 2 2 2 2 2 2 2 2 2 2 2 2 2 2 2 2 2 2 2 2 2 2 2 2 2 2 5 5 5 5 5 5 5 5 5 5 5 5 5 5 5 5 5 5 5 5 5 5 5 5 2 2 2 2 2 2 2 2 2 2 2 2 2 1 1 1 1 1 1 1 1 1 1 1 2 2 2 2 2 2 2 2 2 2 2 2 2 2 2 2 2 2 2 2 2 2 2 2 2 2 2 2 2 2 2 2 2 2 2 2 2 2 2 2 2 2 2 2 2 2 2 2 2 2 1 5 1 1 5 1 1 5 1 1 5 1 1 5 1 1 5 1 1 5 1 1 5 1 
</DataArray>
<DataArray Name="FiberAngle" format="ascii" type="Float64">
0 0 0 0 0 0 0 0 0 0 0 0 0 0 0 0 0 0 0 0 0 0 0 0 0 0 0 0 0 0 0 0 0 0 0 0 0 0 0 0 0 0 0 0 0 0 0 0 0 0 0 0 0 0 0 0 0 0 0 0 0 0 0 0 0 0 0 0 0 0 0 0 20 20 20 20 20 20 20 20 20 20 20 20 20 20 20 20 20 20 20 20 20 20 20 20 20 20 20 20 20 20 20 20 20 20 20 20 20 20 20 20 20 20 20 20 20 20 20 30 30 30 30 30 30 30 30 30 30 30 30 20 20 20 20 20 20 20 20 20 20 20 20 20 20 20 20 20 20 20 20 20 20 20 20 0 0 0 0 0 0 0 0 0 0 0 0 0 0 0 0 0 0 0 0 0 0 0 0 0 20 20 20 20 20 20 20 20 20 20 20 30 30 30 30 30 30 30 30 30 30 30 30 0 0 0 0 0 0 0 0 0 0 0 0 0 20 20 20 20 20 20 20 20 20 20 20 20 20 20 20 20 20 20 20 20 20 20 20 0 0 0 0 0 0 0 0 0 0 0 0 0 0 0 0 0 0 0 0 0 0 0 0 0 0 0 0 0 0 0 0 0 0 0 0 0 0 0 0 0 0 0 0 0 0 0 0 0 0 0 0 0 0 0 0 0 0 0 0 0 0 0 0 0 0 0 0 0 0 0 0 0 0 0 0 0 0 0 0 0 0 0 0 0 0 0 20 20 20 20 20 20 20 20 20 20 20 20 20 20 20 20 20 20 20 20 20 20 20 20 20 20 20 20 20 20 20 20 20 20 20 20 20 20 20 20 20 20 20 20 20 20 20 20 20 20 30 30 30 30 30 30 30 30 30 30 30 20 20 20 20 20 20 20 20 20 20 20 20 20 20 20 20 20 20 20 20 20 20 20 20 20 20 0 0 0 0 0 0 0 0 0 0 0 0 0 0 0 0 0 0 0 0 0 0 0 0 20 20 20 20 20 20 20 20 20 20 20 20 20 30 30 30 30 30 30 30 30 30 30 30 0 0 0 0 0 0 0 0 0 0 0 0 0 20 20 20 20 20 20 20 20 20 20 20 20 20 20 20 20 20 20 20 20 20 20 20 20 0 0 0 0 0 0 0 0 0 0 0 0 0 0 0 0 0 0 0 0 0 0 0 0 0 0 0 0 0 0 0 0 0 0 0 0 0 
</DataArray>
</CellData>
<Points>
<DataArray NumberOfComponents="3" format="ascii" type="Float64">
0 0 0 0.00101851 0.00704816 0 0.00272684 0.012311 0 0.00779 0.0210938 0 0.0130714 0.0302553 0 0.0319462 0.0508503 0 0.0585467 0.0719512 0 0.0926124 0.0927218 0 0.133893 0.112461 0 0.182132 0.13064 0 0.21793 0.141216 0 0.236922 0.146827 0 0.285 0.157694 0 0.297773 0.160581 0 0.364178 0.171448 0 0.435614 0.179064 0 0.511427 0.182908 0 0.591498 0.182264 0 0.676206 0.177258 0 0.765247 0.168776 0 0.857746 0.157461 0 0.952849 0.143852 0 1.01954 0.133313 0 1.0496 0.128562 0 1.14696 0.112228 0 1.24377 0.0955004 0 1.33877 0.0790133 0 1.43064 0.0633519 0 1.51799 0.0490227 0 1.59938 0.0364192 0 1.67341 0.0257899 0 1.73871 0.0172288 0 1.79401 0.010564 0 1.83852 0.00542401 0 1.87179 0.00190405 0 1.89277 0.000323893 0 1.9 -0.00019 0 0.000381 0 0 0.0013905 0.00696577 0 0.00307004 0.0121455 0 0.00812008 0.0209035 0 0.0133673 0.0300152 0 0.0322037 0.0505695 0 0.0587631 0.0716376 0 0.0927928 0.0923863 0 0.134041 0.11211 0 0.182255 0.13028 0 0.218038 0.140851 0 0.237012 0.146457 0 0.285076 0.157321 0 0.297845 0.160207 0 0.364229 0.17107 0 0.435644 0.178684 0 0.511435 0.182528 0 0.591484 0.181884 0 0.676177 0.176878 0 0.765206 0.168397 0 0.857696 0.157083 0 0.952793 0.143475 0 1.01948 0.132937 0 1.04954 0.128186 0 1.1469 0.111853 0 1.2437 0.095125 0 1.33871 0.0786378 0 1.43058 0.0629762 0 1.51793 0.0486465 0 1.59933 0.0360424 0 1.67336 0.0254125 0 1.73866 0.0168508 0 1.79396 0.0101857 0 1.83848 0.00504535 0 1.87175 0.00152472 0 1.89274 -5.60618e-05 0 1.9 -0.000571 0 0.000891 0 0 0.00188843 0.00685548 0 0.00352944 0.011924 0 0.00856192 0.0206488 0 0.0137632 0.0296938 0 0.0325484 0.0501936 0 0.0590528 0.0712179 0 0.0930343 0.0919371 0 0.13424 0.11164 0 0.18242 0.129797 0 0.218182 0.140362 0 0.237132 0.145961 0 0.285178 0.156821 0 0.297942 0.159707 0 0.364297 0.170565 0 0.435683 0.178175 0 0.511445 0.182018 0 0.591467 0.181374 0 0.676137 0.176369 0 0.76515 0.16789 0 0.857629 0.156578 0 0.952718 0.142971 0 1.0194 0.132433 0 1.04946 0.127683 0 1.14681 0.11135 0 1.24362 0.0946225 0 1.33862 0.0781352 0 1.4305 0.0624732 0 1.51785 0.0481429 0 1.59925 0.035538 0 1.67329 0.0249072 0 1.7386 0.0163448 0 1.7939 0.00967919 0 1.83842 0.00453848 0 1.8717 0.00101696 0 1.89271 -0.000564663 0 1.9 -0.001081 0 0.002799 0 0 0.00375128 0.00644286 0 0.00524813 0.0110954 0 0.0102149 0.0196959 0 0.016479 0.0274891 0 0.0349124 0.0476153 0 0.0610398 0.068339 0 0.0946908 0.0888561 0 0.135604 0.108419 0 0.183552 0.126488 0 0.219174 0.137007 0 0.239256 0.137205 0 0.286976 0.147994 0 0.299654 0.150861 0 0.365494 0.161635 0 0.436382 0.169192 0 0.51163 0.17301 0 0.591158 0.172369 0 0.67544 0.167387 0 0.764174 0.158933 0 0.856442 0.147646 0 0.951388 0.134059 0 1.01799 0.123533 0 1.04872 0.123238 0 1.14606 0.106909 0 1.24285 0.0901836 0 1.33786 0.0736954 0 1.42975 0.05803 0 1.51714 0.0436942 0 1.59858 0.0310825 0 1.67267 0.0204444 0 1.73803 0.0118753 0 1.79337 0.00520537 0 1.83792 6.11434e-05 0 1.87128 -0.00346827 0 1.89237 -0.0050573 0 1.9 -0.005586 0 0.004707 0 0 0.00561413 0.00603025 0 0.00696682 0.0102669 0 0.0118679 0.018743 0 0.0191948 0.0252844 0 0.0372764 0.045037 0 0.0630268 0.0654601 0 0.0963472 0.0857752 0 0.136969 0.105198 0 0.184685 0.123178 0 0.220165 0.133653 0 0.244003 0.117633 0 0.290995 0.128263 0 0.303479 0.131087 0 0.368171 0.141673 0 0.437945 0.149113 0 0.512043 0.152874 0 0.590468 0.152241 0 0.673881 0.147307 0 0.76199 0.138912 0 0.85379 0.127682 0 0.948415 0.11414 0 1.01485 0.10364 0 1.04799 0.118794 0 1.1453 0.102468 0 1.24208 0.0857446 0 1.33709 0.0692556 0 1.42901 0.0535867 0 1.51643 0.0392455 0 1.59792 0.026627 0 1.67206 0.0159815 0 1.73747 0.00740578 0 1.79284 0.000731548 0 1.83742 -0.00441619 0 1.87086 -0.00795349 0 1.89204 -0.00954994 0 1.9 -0.010091 0 0.006615 0 0 0.00747698 0.00561763 0 0.00868551 0.00943827 0 0.0135209 0.01779 0 0.0219106 0.0230798 0 0.0396404 0.0424587 0 0.0650138 0.0625813 0 0.0980037 0.0826943 0 0.138333 0.101977 0 0.185817 0.119868 0 0.221156 0.130298 0 0.24474 0.114596 0 0.291618 0.125202 0 0.304073 0.128019 0 0.368586 0.138576 0 0.438188 0.145998 0 0.512108 0.149749 0 0.590361 0.149118 0 0.673639 0.144191 0 0.761651 0.135805 0 0.853378 0.124584 0 0.947953 0.111049 0 1.01436 0.100554 0 1.04748 0.115711 0 1.14478 0.0993872 0 1.24155 0.0826654 0 1.33657 0.0661758 0 1.42849 0.0505046 0 1.51593 0.0361596 0 1.59746 0.0235364 0 1.67163 0.0128857 0 1.73708 0.00430539 0 1.79248 -0.00237182 0 1.83708 -0.007522 0 1.87057 -0.0110648 0 1.89181 -0.0126664 0 1.9 -0.013216 0 0.008523 0 0 0.00933983 0.00520502 0 0.0104042 0.00860967 0 0.0151739 0.0168371 0 0.0246263 0.0208751 0 0.0420044 0.0398805 0 0.0670007 0.0597024 0 0.0996602 0.0796133 0 0.139697 0.0987564 0 0.18695 0.116559 0 0.222147 0.126943 0 0.249362 0.0955384 0 0.295532 0.10599 0 0.307798 0.108766 0 0.371192 0.11914 0 0.439709 0.126447 0 0.51251 0.130144 0 0.589689 0.129519 0 0.672121 0.12464 0 0.759526 0.116311 0 0.850796 0.105145 0 0.945059 0.0916542 0 1.0113 0.081184 0 1.04679 0.111528 0 1.14406 0.0952074 0 1.24082 0.0784876 0 1.33585 0.0619972 0 1.42779 0.0463227 0 1.51527 0.0319726 0 1.59683 0.019343 0 1.67105 0.0086854 0 1.73655 9.87855e-05 0 1.79198 -0.00658248 0 1.83661 -0.011736 0 1.87017 -0.0152862 0 1.89149 -0.0168947 0 1.9 -0.017456 0 0.010431 0 0 0.0112027 0.0047924 0 0.0121229 0.00778108 0 0.0168269 0.0158842 0 0.0273421 0.0186704 0 0.0443683 0.0373022 0 0.0689877 0.0568235 0 0.101317 0.0765324 0 0.141062 0.0955354 0 0.188082 0.113249 0 0.223138 0.123589 0 0.251361 0.0872973 0 0.297224 0.0976818 0 0.309409 0.100441 0 0.372319 0.110735 0 0.440367 0.117992 0 0.512684 0.121665 0 0.589398 0.121044 0 0.671465 0.116186 0 0.758606 0.107881 0 0.849679 0.0967384 0 0.943807 0.0832671 0 1.00998 0.0728079 0 1.04609 0.107345 0 1.14335 0.0910275 0 1.2401 0.0743098 0 1.33513 0.0578186 0 1.42709 0.0421409 0 1.5146 0.0277856 0 1.5962 0.0151496 0 1.67047 0.00448506 0 1.73601 -0.00410782 0 1.79148 -0.0107931 0 1.83614 -0.0159499 0 1.86978 -0.0195075 0 1.89118 -0.0211231 0 1.9 -0.021696 0 0.000437608 -0.00363827 0 0.00151896 -0.00625482 0 0.00323545 -0.00894111 0 0.00673962 -0.0130809 0 0.00779 -0.014071 0 0.0112496 -0.0173318 0 0.0343927 -0.032696 0 0.0659522 -0.047276 0 0.106196 -0.0613079 0 0.154522 -0.0742607 0 0.210402 -0.0855715 0 0.21793 -0.0866676 0 0.273437 -0.0947499 0 0.285 -0.095855 0 0.34329 -0.101425 0 0.419708 -0.105476 0 0.502241 -0.107095 0 0.590182 -0.106511 0 0.682744 -0.103976 0 0.779 -0.0998333 0 0.877884 -0.0944298 0 0.978178 -0.0881063 0 1.01954 -0.0851927 0 1.07859 -0.081033 0 1.17797 -0.0733334 0 1.27518 -0.0652299 0 1.36904 -0.0569419 0 1.45842 -0.0486569 0 1.54219 -0.0405535 0 1.61932 -0.0327949 0 1.68879 -0.0255278 0 1.74969 -0.0188831 0 1.80115 -0.0129185 0 1.84257 -0.0076441 0 1.87353 -0.00342224 0 1.89317 -0.000844911 0 1.9 -0.00019 0 0.000767111 -0.00344699 0 0.00185593 -0.00607703 0 0.00353809 -0.00870966 0 0.00702453 -0.012828 0 0.00805133 -0.0137937 0 0.0114681 -0.0170197 0 0.0345757 -0.0323618 0 0.0660932 -0.0469221 0 0.106307 -0.0609434 0 0.154609 -0.0738896 0 0.210475 -0.0851976 0 0.217985 -0.0862906 0 0.273481 -0.0943715 0 0.285042 -0.0954763 0 0.343317 -0.101045 0 0.419721 -0.105096 0 0.502243 -0.106714 0 0.590175 -0.10613 0 0.682731 -0.103595 0 0.778981 -0.0994527 0 0.877862 -0.0940495 0 0.978154 -0.0877261 0 1.01951 -0.0848126 0 1.07856 -0.080653 0 1.17794 -0.0729536 0 1.27514 -0.0648503 0 1.36901 -0.0565625 0 1.45838 -0.0482776 0 1.54216 -0.0401744 0 1.61928 -0.0324159 0 1.68875 -0.0251489 0 1.74965 -0.0185045 0 1.8011 -0.0125402 0 1.84252 -0.00726634 0 1.87348 -0.00304464 0 1.89312 -0.000466721 0 1.9 0.000191 0 0.00120818 -0.00319094 0 0.002307 -0.00583904 0 0.00394319 -0.00839983 0 0.00740591 -0.0124893 0 0.00840114 -0.0134226 0 0.0117606 -0.0166019 0 0.0348206 -0.0319144 0 0.066282 -0.0464483 0 0.106456 -0.0604556 0 0.154724 -0.0733929 0 0.210573 -0.0846971 0 0.218058 -0.0857859 0 0.273541 -0.093865 0 0.285098 -0.0949694 0 0.343355 -0.100537 0 0.419739 -0.104586 0 0.502246 -0.106204 0 0.590166 -0.10562 0 0.682712 -0.103085 0 0.778956 -0.0989433 0 0.877832 -0.0935404 0 0.97812 -0.0872172 0 1.01948 -0.0843039 0 1.07852 -0.0801445 0 1.1779 -0.0724453 0 1.2751 -0.0643422 0 1.36896 -0.0560546 0 1.45833 -0.0477699 0 1.54211 -0.0396668 0 1.61923 -0.0319086 0 1.6887 -0.0246418 0 1.74959 -0.0179977 0 1.80104 -0.0120339 0 1.84246 -0.00676067 0 1.87341 -0.00253918 0 1.89306 3.95181e-05 0 1.9 0.000701 0 0.00285828 -0.00223302 0 0.00399452 -0.00494868 0 0.00545875 -0.00724072 0 0.0088327 -0.0112226 0 0.00970983 -0.0120341 0 0.0137668 -0.0137364 0 0.0365002 -0.0288461 0 0.0675769 -0.0431988 0 0.107476 -0.0571094 0 0.155518 -0.0699861 0 0.211245 -0.0812642 0 0.218562 -0.0823244 0 0.274594 -0.0849168 0 0.286086 -0.086015 0 0.344014 -0.0915509 0 0.420061 -0.0955817 0 0.502301 -0.0971943 0 0.590011 -0.096611 0 0.682394 -0.0940808 0 0.778516 -0.0899441 0 0.877302 -0.0845459 0 0.977534 -0.0782263 0 1.01884 -0.0753161 0 1.07819 -0.075652 0 1.17753 -0.0679548 0 1.27471 -0.0598537 0 1.36856 -0.0515679 0 1.45791 -0.0432849 0 1.54166 -0.0351836 0 1.61877 -0.0274271 0 1.68822 -0.0201622 0 1.74909 -0.0135208 0 1.8005 -0.00756154 0 1.84187 -0.00229394 0 1.87281 0.00192569 0 1.89251 0.00451129 0 1.9 0.005206 0 0.00450839 -0.0012751 0 0.00568204 -0.00405833 0 0.00697431 -0.0060816 0 0.0102595 -0.00995579 0 0.0110185 -0.0106457 0 0.015773 -0.0108709 0 0.0381798 -0.0257777 0 0.0688717 -0.0399493 0 0.108495 -0.0537633 0 0.156311 -0.0665792 0 0.211917 -0.0778313 0 0.219066 -0.0788629 0 0.276949 -0.0649149 0 0.288295 -0.0659992 0 0.345487 -0.0714649 0 0.420779 -0.0754545 0 0.502423 -0.0770547 0 0.589663 -0.076474 0 0.681682 -0.0739533 0 0.777532 -0.0698282 0 0.876118 -0.0644407 0 0.976224 -0.058129 0 1.01743 -0.0552259 0 1.07785 -0.0711596 0 1.17717 -0.0634642 0 1.27433 -0.0553651 0 1.36815 -0.0470812 0 1.45748 -0.0388 0 1.54122 -0.0307003 0 1.61831 -0.0229455 0 1.68774 -0.0156827 0 1.74859 -0.0090439 0 1.79996 -0.00308916 0 1.84128 0.00217278 0 1.87221 0.00639055 0 1.89197 0.00898307 0 1.9 0.009711 0 0.0061585 -0.000317186 0 0.00736956 -0.00316797 0 0.00848986 -0.00492249 0 0.0116863 -0.00868901 0 0.0123272 -0.00925724 0 0.0177792 -0.0080054 0 0.0398594 -0.0227093 0 0.0701666 -0.0366997 0 0.109515 -0.0504171 0 0.157104 -0.0631723 0 0.212589 -0.0743984 0 0.21957 -0.0754014 0 0.277314 -0.0618113 0 0.288637 -0.0628935 0 0.345715 -0.0683482 0 0.42089 -0.0723315 0 0.502442 -0.0739297 0 0.589609 -0.0733495 0 0.681572 -0.0708303 0 0.777379 -0.0667069 0 0.875935 -0.0613211 0 0.97602 -0.0550106 0 1.01721 -0.0521087 0 1.07762 -0.0680433 0 1.17692 -0.0603493 0 1.27406 -0.0522516 0 1.36787 -0.0439689 0 1.45719 -0.0356889 0 1.54092 -0.0275904 0 1.61799 -0.0198368 0 1.68741 -0.0125753 0 1.74824 -0.00593839 0 1.79958 1.32115e-05 0 1.84088 0.00527123 0 1.8718 0.00948772 0 1.89159 0.012085 0 1.9 0.012836 0 0.00780861 0.000640733 0 0.00905708 -0.00227761 0 0.0100054 -0.00376337 0 0.0131131 -0.00742223 0 0.0136359 -0.0078688 0 0.0197854 -0.00513988 0 0.0415391 -0.019641 0 0.0714614 -0.0334502 0 0.110534 -0.047071 0 0.157897 -0.0597655 0 0.21326 -0.0709655 0 0.220074 -0.0719399 0 0.279607 -0.0423358 0 0.290788 -0.0434044 0 0.347149 -0.0487908 0 0.421589 -0.052734 0 0.502561 -0.0543201 0 0.58927 -0.0537424 0 0.680879 -0.0512325 0 0.776421 -0.0471203 0 0.874782 -0.041745 0 0.974744 -0.0354422 0 1.01583 -0.0325471 0 1.0773 -0.0638152 0 1.17658 -0.0561229 0 1.2737 -0.0480271 0 1.36749 -0.0397461 0 1.45679 -0.0314677 0 1.5405 -0.0233708 0 1.61756 -0.0156189 0 1.68696 -0.00835924 0 1.74776 -0.00172485 0 1.79907 0.00422251 0 1.84033 0.00947521 0 1.87123 0.0136899 0 1.89108 0.0162938 0 1.9 0.017076 0 0.00945872 0.00159865 0 0.0107446 -0.00138725 0 0.011521 -0.00260426 0 0.0145399 -0.00615544 0 0.0149446 -0.00648035 0 0.0217916 -0.00227437 0 0.0432187 -0.0165726 0 0.0727563 -0.0302007 0 0.111553 -0.0437248 0 0.158691 -0.0563586 0 0.213932 -0.0675326 0 0.220579 -0.0684784 0 0.280598 -0.033914 0 0.291718 -0.0349767 0 0.34777 -0.0403335 0 0.421891 -0.0442594 0 0.502613 -0.0458402 0 0.589123 -0.0452637 0 0.680579 -0.0427578 0 0.776007 -0.0386504 0 0.874284 -0.0332797 0 0.974192 -0.0269801 0 1.01524 -0.0240881 0 1.07698 -0.059587 0 1.17624 -0.0518966 0 1.27334 -0.0438026 0 1.3671 -0.0355234 0 1.45639 -0.0272466 0 1.54008 -0.0191513 0 1.61712 -0.011401 0 1.68651 -0.00414318 0 1.74729 0.0024887 0 1.79856 0.0084318 0 1.83977 0.0136792 0 1.87067 0.0178922 0 1.89056 0.0205025 0 1.9 0.021316 0 0.275521 0.0976818 0 0.295661 0.0976818 0 0.298786 0.0976818 0 0.318926 0.0976818 0 0.272465 0.0492976 0 0.292605 0.0492976 0 0.29573 0.0492976 0 0.31587 0.0492976 0 0.269409 0.000913442 0 0.289549 0.000913442 0 0.292674 0.000913442 0 0.312814 0.000913442 0 0.266353 -0.0474708 0 0.286493 -0.0474708 0 0.289618 -0.0474708 0 0.309758 -0.0474708 0 0.263297 -0.095855 0 0.283437 -0.095855 0 0.286562 -0.095855 0 0.306702 -0.095855 0 -0.0112715 0 0 0.0088685 0 0 0.0119935 0 0 0.0321335 0 0 -0.0137698 -0.000909568 0 0.00637015 -0.000909568 0 0.00949515 -0.000909568 0 0.0296352 -0.000909568 0 -0.0162682 -0.00181914 0 0.0038718 -0.00181914 0 0.0069968 -0.00181914 0 0.0271368 -0.00181914 0 -0.0187665 -0.0027287 0 0.00137346 -0.0027287 0 0.00449846 -0.0027287 0 0.0246385 -0.0027287 0 -0.0212649 -0.00363827 0 -0.00112489 -0.00363827 0 0.00200011 -0.00363827 0 0.0221401 -0.00363827 0 
</DataArray>
</Points>
<Cells>
<DataArray Name="connectivity" format="ascii" type="Int64">
0 37 38 1 1 38 39 2 2 39 40 3 3 40 41 4 4 41 42 5 5 42 43 6 6 43 44 7 7 44 45 8 8 45 46 9 9 46 47 10 10 47 48 11 11 48 49 12 12 49 50 13 13 50 51 14 14 51 52 15 15 52 53 16 16 53 54 17 17 54 55 18 18 55 56 19 19 56 57 20 20 57 58 21 21 58 59 22 22 59 60 23 23 60 61 24 24 61 62 25 25 62 63 26 26 63 64 27 27 64 65 28 28 65 66 29 29 66 67 30 30 67 68 31 31 68 69 32 32 69 70 33 33 70 71 34 34 71 72 35 35 72 73 36 37 74 75 38 38 75 76 39 39 76 77 40 40 77 78 41 41 78 79 42 42 79 80 43 43 80 81 44 44 81 82 45 45 82 83 46 46 83 84 47 47 84 85 48 48 85 86 49 49 86 87 50 50 87 88 51 51 88 89 52 52 89 90 53 53 90 91 54 54 91 92 55 55 92 93 56 56 93 94 57 57 94 95 58 58 95 96 59 59 96 97 60 60 97 98 61 61 98 99 62 62 99 100 63 63 100 101 64 64 101 102 65 65 102 103 66 66 103 104 67 67 104 105 68 68 105 106 69 69 106 107 70 70 107 108 71 71 108 109 72 72 109 110 73 74 111 112 75 75 112 113 76 76 113 114 77 77 114 115 78 78 115 116 79 79 116 117 80 80 117 118 81 81 118 119 82 82 119 120 83 83 120 121 84 84 121 122 85 85 122 123 86 86 123 124 87 87 124 125 88 88 125 126 89 89 126 127 90 90 127 128 91 91 128 129 92 92 129 130 93 93 130 131 94 94 131 132 95 95 132 133 96 96 133 134 97 97 134 135 98 98 135 136 99 99 136 137 100 100 137 138 101 101 138 139 102 102 139 140 103 103 140 141 104 104 141 142 105 105 142 143 106 106 143 144 107 107 144 145 108 108 145 146 109 109 146 147 110 111 148 149 112 112 149 150 113 113 150 151 114 114 151 152 115 115 152 153 116 116 153 154 117 117 154 155 118 118 155 156 119 119 156 157 120 120 157 158 121 121 158 159 122 122 159 160 123 123 160 161 124 124 161 162 125 125 162 163 126 126 163 164 127 127 164 165 128 128 165 166 129 129 166 167 130 130 167 168 131 131 168 169 132 132 169 170 133 133 170 171 134 134 171 172 135 135 172 173 136 136 173 174 137 137 174 175 138 138 175 176 139 139 176 177 140 140 177 178 141 141 178 179 142 142 179 180 143 143 180 181 144 144 181 182 145 145 182 183 146 146 183 184 147 148 185 186 149 149 186 187 150 150 187 188 151 151 188 189 152 152 189 190 153 153 190 191 154 154 191 192 155 155 192 193 156 156 193 194 157 157 194 195 158 158 195 196 159 159 196 197 160 160 197 198 161 161 198 199 162 162 199 200 163 163 200 201 164 164 201 202 165 165 202 203 166 166 203 204 167 167 204 205 168 168 205 206 169 169 206 207 170 170 207 208 171 171 208 209 172 172 209 210 173 173 210 211 174 174 211 212 175 175 212 213 176 176 213 214 177 177 214 215 178 178 215 216 179 179 216 217 180 180 217 218 181 181 218 219 182 182 219 220 183 183 220 221 184 185 222 223 186 186 223 224 187 187 224 225 188 188 225 226 189 189 226 227 190 190 227 228 191 191 228 229 192 192 229 230 193 193 230 231 194 194 231 232 195 195 232 233 196 196 233 234 197 197 234 235 198 198 235 236 199 199 236 237 200 200 237 238 201 201 238 239 202 202 239 240 203 203 240 241 204 204 241 242 205 205 242 243 206 206 243 244 207 207 244 245 208 208 245 246 209 209 246 247 210 210 247 248 211 211 248 249 212 212 249 250 213 213 250 251 214 214 251 252 215 215 252 253 216 216 253 254 217 217 254 255 218 218 255 256 219 219 256 257 220 220 257 258 221 222 259 260 223 223 260 261 224 224 261 262 225 225 262 263 226 226 263 264 227 227 264 265 228 228 265 266 229 229 266 267 230 230 267 268 231 231 268 269 232 232 269 270 233 233 270 271 234 234 271 272 235 235 272 273 236 236 273 274 237 237 274 275 238 238 275 276 239 239 276 277 240 240 277 278 241 241 278 279 242 242 279 280 243 243 280 281 244 244 281 282 245 245 282 283 246 246 283 284 247 247 284 285 248 248 285 286 249 249 286 287 250 250 287 288 251 251 288 289 252 252 289 290 253 253 290 291 254 254 291 292 255 255 292 293 256 256 293 294 257 257 294 295 258 0 296 333 37 296 297 334 333 297 298 335 334 298 299 336 335 299 300 337 336 300 301 338 337 301 302 339 338 302 303 340 339 303 304 341 340 304 305 342 341 305 306 343 342 306 307 344 343 307 308 345 344 308 309 346 345 309 310 347 346 310 311 348 347 311 312 349 348 312 313 350 349 313 314 351 350 314 315 352 351 315 316 353 352 316 317 354 353 317 318 355 354 318 319 356 355 319 320 357 356 320 321 358 357 321 322 359 358 322 323 360 359 323 324 361 360 324 325 362 361 325 326 363 362 326 327 364 363 327 328 365 364 328 329 366 365 329 330 367 366 330 331 368 367 331 332 369 368 37 333 370 74 333 334 371 370 334 335 372 371 335 336 373 372 336 337 374 373 337 338 375 374 338 339 376 375 339 340 377 376 340 341 378 377 341 342 379 378 342 343 380 379 343 344 381 380 344 345 382 381 345 346 383 382 346 347 384 383 347 348 385 384 348 349 386 385 349 350 387 386 350 351 388 387 351 352 389 388 352 353 390 389 353 354 391 390 354 355 392 391 355 356 393 392 356 357 394 393 357 358 395 394 358 359 396 395 359 360 397 396 360 361 398 397 361 362 399 398 362 363 400 399 363 364 401 400 364 365 402 401 365 366 403 402 366 367 404 403 367 368 405 404 368 369 406 405 74 370 407 111 370 371 408 407 371 372 409 408 372 373 410 409 373 374 411 410 374 375 412 411 375 376 413 412 376 377 414 413 377 378 415 414 378 379 416 415 379 380 417 416 380 381 418 417 381 382 419 418 382 383 420 419 383 384 421 420 384 385 422 421 385 386 423 422 386 387 424 423 387 388 425 424 388 389 426 425 389 390 427 426 390 391 428 427 391 392 429 428 392 393 430 429 393 394 431 430 394 395 432 431 395 396 433 432 396 397 434 433 397 398 435 434 398 399 436 435 399 400 437 436 400 401 438 437 401 402 439 438 402 403 440 439 403 404 441 440 404 405 442 441 405 406 443 442 111 407 444 148 407 408 445 444 408 409 446 445 409 410 447 446 410 411 448 447 411 412 449 448 412 413 450 449 413 414 451 450 414 415 452 451 415 416 453 452 416 417 454 453 417 418 455 454 418 419 456 455 419 420 457 456 420 421 458 457 421 422 459 458 422 423 460 459 423 424 461 460 424 425 462 461 425 426 463 462 426 427 464 463 427 428 465 464 428 429 466 465 429 430 467 466 430 431 468 467 431 432 469 468 432 433 470 469 433 434 471 470 434 435 472 471 435 436 473 472 436 437 474 473 437 438 475 474 438 439 476 475 439 440 477 476 440 441 478 477 441 442 479 478 442 443 480 479 148 444 481 185 444 445 482 481 445 446 483 482 446 447 484 483 447 448 485 484 448 449 486 485 449 450 487 486 450 451 488 487 451 452 489 488 452 453 490 489 453 454 491 490 454 455 492 491 455 456 493 492 456 457 494 493 457 458 495 494 458 459 496 495 459 460 497 496 460 461 498 497 461 462 499 498 462 463 500 499 463 464 501 500 464 465 502 501 465 466 503 502 466 467 504 503 467 468 505 504 468 469 506 505 469 470 507 506 470 471 508 507 471 472 509 508 472 473 510 509 473 474 511 510 474 475 512 511 475 476 513 512 476 477 514 513 477 478 515 514 478 479 516 515 479 480 517 516 185 481 518 222 481 482 519 518 482 483 520 519 483 484 521 520 484 485 522 521 485 486 523 522 486 487 524 523 487 488 525 524 488 489 526 525 489 490 527 526 490 491 528 527 491 492 529 528 492 493 530 529 493 494 531 530 494 495 532 531 495 496 533 532 496 497 534 533 497 498 535 534 498 499 536 535 499 500 537 536 500 501 538 537 501 502 539 538 502 503 540 539 503 504 541 540 504 505 542 541 505 506 543 542 506 507 544 543 507 508 545 544 508 509 546 545 509 510 547 546 510 511 548 547 511 512 549 548 512 513 550 549 513 514 551 550 514 515 552 551 515 516 553 552 516 517 554 553 222 518 555 259 518 519 556 555 519 520 557 556 520 521 558 557 521 522 559 558 522 523 560 559 523 524 561 560 524 525 562 561 525 526 563 562 526 527 564 563 527 528 565 564 528 529 566 565 529 530 567 566 530 531 568 567 531 532 569 568 532 533 570 569 533 534 571 570 534 535 572 571 535 536 573 572 536 537 574 573 537 538 575 574 538 539 576 575 539 540 577 576 540 541 578 577 541 542 579 578 542 543 580 579 543 544 581 580 544 545 582 581 545 546 583 582 546 547 584 583 547 548 585 584 548 549 586 585 549 550 587 586 550 551 588 587 551 552 589 588 552 553 590 589 553 554 591 590 592 596 597 593 593 597 598 594 594 598 599 595 596 600 601 597 597 601 602 598 598 602 603 599 600 604 605 601 601 605 606 602 602 606 607 603 604 608 609 605 605 609 610 606 606 610 611 607 612 616 617 613 613 617 618 614 614 618 619 615 616 620 621 617 617 621 622 618 618 622 623 619 620 624 625 621 621 625 626 622 622 626 627 623 624 628 629 625 625 629 630 626 626 630 631 627 
</DataArray>
<DataArray Name="offsets" format="ascii" type="Int64">
4 8 12 16 20 24 28 32 36 40 44 48 52 56 60 64 68 72 76 80 84 88 92 96 100 104 108 112 116 120 124 128 132 136 140 144 148 152 156 160 164 168 172 176 180 184 188 192 196 200 204 208 212 216 220 224 228 232 236 240 244 248 252 256 260 264 268 272 276 280 284 288 292 296 300 304 308 312 316 320 324 328 332 336 340 344 348 352 356 360 364 368 372 376 380 384 388 392 396 400 404 408 412 416 420 424 428 432 436 440 444 448 452 456 460 464 468 472 476 480 484 488 492 496 500 504 508 512 516 520 524 528 532 536 540 544 548 552 556 560 564 568 572 576 580 584 588 592 596 600 604 608 612 616 620 624 628 632 636 640 644 648 652 656 660 664 668 672 676 680 684 688 692 696 700 704 708 712 716 720 724 728 732 736 740 744 748 752 756 760 764 768 772 776 780 784 788 792 796 800 804 808 812 816 820 824 828 832 836 840 844 848 852 856 860 864 868 872 876 880 884 888 892 896 900 904 908 912 916 920 924 928 932 936 940 944 948 952 956 960 964 968 972 976 980 984 988 992 996 1000 1004 1008 1012 1016 1020 1024 1028 1032 1036 1040 1044 1048 1052 1056 1060 1064 1068 1072 1076 1080 1084 1088 1092 1096 1100 1104 1108 1112 1116 1120 1124 1128 1132 1136 1140 1144 1148 1152 1156 1160 1164 1168 1172 1176 1180 1184 1188 1192 1196 1200 1204 1208 1212 1216 1220 1224 1228 1232 1236 1240 1244 1248 1252 1256 1260 1264 1268 1272 1276 1280 1284 1288 1292 1296 1300 1304 1308 1312 1316 1320 1324 1328 1332 1336 1340 1344 1348 1352 1356 1360 1364 1368 1372 1376 1380 1384 1388 1392 1396 1400 1404 1408 1412 1416 1420 1424 1428 1432 1436 1440 1444 1448 1452 1456 1460 1464 1468 1472 1476 1480 1484 1488 1492 1496 1500 1504 1508 1512 1516 1520 1524 1528 1532 1536 1540 1544 1548 1552 1556 1560 1564 1568 1572 1576 1580 1584 1588 1592 1596 1600 1604 1608 1612 1616 1620 1624 1628 1632 1636 1640 1644 1648 1652 1656 1660 1664 1668 1672 1676 1680 1684 1688 1692 1696 1700 1704 1708 1712 1716 1720 1724 1728 1732 1736 1740 1744 1748 1752 1756 1760 1764 1768 1772 1776 1780 1784 1788 1792 1796 1800 1804 1808 1812 1816 1820 1824 1828 1832 1836 1840 1844 1848 1852 1856 1860 1864 1868 1872 1876 1880 1884 1888 1892 1896 1900 1904 1908 1912 1916 1920 1924 1928 1932 1936 1940 1944 1948 1952 1956 1960 1964 1968 1972 1976 1980 1984 1988 1992 1996 2000 2004 2008 2012 2016 2020 2024 2028 2032 2036 2040 2044 2048 2052 2056 2060 2064 2068 2072 2076 2080 2084 2088 2092 2096 2100 2104 2108 2112 2116 2120 2124 2128 2132 2136 2140 
</DataArray>
<DataArray Name="types" format="ascii" type="Int8">
9 9 9 9 9 9 9 9 9 9 9 9 9 9 9 9 9 9 9 9 9 9 9 9 9 9 9 9 9 9 9 9 9 9 9 9 9 9 9 9 9 9 9 9 9 9 9 9 9 9 9 9 9 9 9 9 9 9 9 9 9 9 9 9 9 9 9 9 9 9 9 9 9 9 9 9 9 9 9 9 9 9 9 9 9 9 9 9 9 9 9 9 9 9 9 9 9 9 9 9 9 9 9 9 9 9 9 9 9 9 9 9 9 9 9 9 9 9 9 9 9 9 9 9 9 9 9 9 9 9 9 9 9 9 9 9 9 9 9 9 9 9 9 9 9 9 9 9 9 9 9 9 9 9 9 9 9 9 9 9 9 9 9 9 9 9 9 9 9 9 9 9 9 9 9 9 9 9 9 9 9 9 9 9 9 9 9 9 9 9 9 9 9 9 9 9 9 9 9 9 9 9 9 9 9 9 9 9 9 9 9 9 9 9 9 9 9 9 9 9 9 9 9 9 9 9 9 9 9 9 9 9 9 9 9 9 9 9 9 9 9 9 9 9 9 9 9 9 9 9 9 9 9 9 9 9 9 9 9 9 9 9 9 9 9 9 9 9 9 9 9 9 9 9 9 9 9 9 9 9 9 9 9 9 9 9 9 9 9 9 9 9 9 9 9 9 9 9 9 9 9 9 9 9 9 9 9 9 9 9 9 9 9 9 9 9 9 9 9 9 9 9 9 9 9 9 9 9 9 9 9 9 9 9 9 9 9 9 9 9 9 9 9 9 9 9 9 9 9 9 9 9 9 9 9 9 9 9 9 9 9 9 9 9 9 9 9 9 9 9 9 9 9 9 9 9 9 9 9 9 9 9 9 9 9 9 9 9 9 9 9 9 9 9 9 9 9 9 9 9 9 9 9 9 9 9 9 9 9 9 9 9 9 9 9 9 9 9 9 9 9 9 9 9 9 9 9 9 9 9 9 9 9 9 9 9 9 9 9 9 9 9 9 9 9 9 9 9 9 9 9 9 9 9 9 9 9 9 9 9 9 9 9 9 9 9 9 9 9 9 9 9 9 9 9 9 9 9 9 9 9 9 9 9 9 9 9 9 9 9 9 9 9 9 9 9 9 9 9 9 9 9 9 9 9 9 9 9 9 9 9 9 9 9 9 9 9 9 9 9 9 9 9 9 9 9 9 9 9 9 9 9 9 9 9 
</DataArray>
</Cells>
</Piece>
</UnstructuredGrid>
</VTKFile>
