<?xml version="1.0" encoding="utf-8"?>
<VTKFile xmlns:xsi="http://www.w3.org/2001/XMLSchema-instance" xmlns:xsd="http://www.w3.org/2001/XMLSchema" type="UnstructuredGrid">
  <UnstructuredGrid>
    <Piece NumberOfPoints="664" NumberOfCells="578">
      <PointData />
      <Points>
        <DataArray type="Float64" format="Ascii" NumberOfComponents="3">0 0 0 6.487872208438272E-05 0 0 0.0003810000000000202 0 0 0.0008909999999999751 0 0 0.005115542493796532 0 0 0.0056476842431761876 0 0 0.008986980148883383 0 0 0.010431000000000024 0 0 0.001018514000000026 0.007048164 0 0.0010818574838835637 0.007034133617653322 0 0.0013904983206567967 0.006965770643559765 0 0.0018884300884651761 0.006855480323915355 0 0.006013006386734854 0.005941899653342394 0 0.006532555959270603 0.005826821057979222 0 0.009792833436846893 0.0051046798563562515 0 0.011202683156879889 0.00479240257997875 0 0.002726842000000007 0.012310974 0 0.0027852835739745063 0.012282798993155614 0 0.0030700398770379667 0.012145516400607835 0 0.0035294386100809816 0.011924037724256119 0 0.007334829726426739 0.010089437567947026 0 0.007814173344984132 0.009858343351703706 0 0.010822150420155663 0.00840818092593363 0 0.012122897263473098 0.007781083660735759 0 0.007790000000000019 0.021093814536027905 0 0.007983143644661406 0.02098247051405631 0 0.008340998968645152 0.020776173013943636 0 0.009462913811600693 0.020129408212837707 0 0.013910724500608151 0.017565321095446146 0 0.014547429805504775 0.0171982713300649 0 0.018542882934792282 0.014894960642344506 0 0.020270646450159857 0.013898934399005958 0 0.013071449000000013 0.030255314999999998 0 0.013367250331222102 0.03001518467611892 0 0.01376320486907845 0.029693750384309606 0 0.0153780618650608 0.02838281600864347 0 0.02007003066642682 0.02457389471928679 0 0.02079805462393769 0.023982887816146787 0 0.025366550562109846 0.02027420129756265 0 0.027342116373211323 0.018670444965201944 0 0.03194620100000001 0.050850308 0 0.03220368637234089 0.050569483707905316 0 0.03254835183137983 0.05019357717518015 0 0.033954031965305886 0.04866048376124154 0 0.03803823716086807 0.044206079138618036 0 0.038671958175571675 0.04351491655442248 0 0.042648684287040106 0.03917773310607854 0 0.044368349632539994 0.03730219431760549 0 0.05854669499999998 0.07195117599999999 0 0.0587631159766418 0.07163761107710616 0 0.05905281334694967 0.07121787850315378 0 0.06023431218187175 0.06950604540443941 0 0.06366715836335823 0.0645323124285188 0 0.06419981200373293 0.06376056885603856 0 0.06754232012781186 0.058917723590010594 0 0.06898772904633249 0.05682352023172823 0 0.09261240300000001 0.092721824 0 0.09279282334170985 0.09238625060967039 0 0.09303433088573088 0.09193705788245753 0 0.09401929281887678 0.09010507479164316 0 0.09688110081323886 0.08478224587978511 0 0.09732514996827268 0.08395633523680814 0 0.10011164722594101 0.07877358076999898 0 0.10131661901304079 0.07653238964921665 0 0.13389250600000002 0.112460696 0 0.1340411078163155 0.11210987054455564 0 0.13424002363343068 0.11164026166718917 0 0.13505127989688726 0.10972501355538257 0 0.13740838587439558 0.104160258032244 0 0.13777412351986296 0.10329680912411054 0 0.1400692003927 0.09787849453579142 0 0.14106166606744036 0.09553543957868045 0 0.18213153000000004 0.130640124 0 0.18225487784844052 0.1302796433371551 0 0.18241998914162866 0.12979711016641785 0 0.18309337737544973 0.12782915174680434 0 0.18504990763921664 0.12211124636559431 0 0.18535349041351018 0.12122403413539166 0 0.18725853303875695 0.115656599948424 0 0.1880823352550799 0.1132490608405461 0 0.21792999999999996 0.1412163135452728 0 0.21803794895502115 0.14085092604807314 0 0.21818244755623062 0.14036182467386887 0 0.21975351268622922 0.135044056144518 0 0.2234627890725191 0.12248883303056968 0 0.2240383346885646 0.12054071623657323 0 0.22764999853837317 0.1083158937308867 0 0.22921179912207418 0.10302948399869793 0 0.23692238100000002 0.146827364 0 0.23701218534343924 0.14645709898693576 0 0.2371323958819012 0.14596146865448759 0 0.23925611539472916 0.13720533278123656 0 0.24400325312928578 0.11763279377044013 0 0.244739837311038 0.11459584320396848 0 0.24936205036836945 0.09553837100924564 0 0.2513608452039722 0.0872973019520682 0 0.24943539793343059 0.14965569376799595 0 0.24952163286751736 0.14928458120266969 0 0.2496370654564524 0.14878781635144553 0 0.2516763745276381 0.14001163731315217 0 0.25623483009852377 0.1203942959334376 0 0.256942137628763 0.1173503936587798 0 0.2613806338425201 0.0982492981048472 0 0.2632999835565772 0.0899893648923358 0 0.2705478591167058 0.15442776454501084 0 0.2706280518332571 0.1540552996094637 0 0.27073539641446753 0.15355672449888882 0 0.27263181734918474 0.1447485642120658 0 0.27687087590914083 0.12505973533563786 0 0.27752862456851835 0.12200474078554663 0 0.281656128955844 0.10283403898481416 0 0.2834409957179308 0.0945440057736866 0 0.2738237499408237 0.1551682174336986 0 0.2739030031479258 0.1547955514583748 0 0.2740090901180625 0.15429670723943745 0 0.2758832932571439 0.14548379270487755 0 0.2800726885092082 0.1257843366864495 0 0.28072273121837904 0.12272769318805886 0 0.284801879226968 0.10354664390695786 0 0.286565835122574 0.09525213610972501 0 0.29493621112409896 0.1599402882107135 0 0.29500939864116543 0.1595663836943652 0 0.2951073661836954 0.1590658815858675 0 0.29683812610172416 0.15022367766907477 0 0.3007068835655532 0.13045875126683215 0 0.30130717488007486 0.12739194913142957 0 0.305074122936961 0.10814715237135122 0 0.3067030734480469 0.09982507809672275 0 0.297772883 0.160581464 0 0.2978452542716757 0.1602074006376721 0 0.29794212920226515 0.15970668590069778 0 0.299653586309346 0.15086072554748445 0 0.3034791963134092 0.13108740240500757 0 0.30407279270182513 0.12801929739903736 0 0.30779772875841294 0.10876632486557303 0 0.3094085119180185 0.10044071512137223 0 0.36417837699999994 0.171448001 0 0.36422900918704393 0.17107038031513866 0 0.364296784555528 0.17056490380784395 0 0.36549414939874664 0.1616348188456376 0 0.3681706119894707 0.14167345245952928 0 0.3685859022375349 0.1385761699393412 0 0.3711919316021873 0.11914010266865678 0 0.3723188632193342 0.11073531682187433 0 0.435614216 0.179063524 0 0.4356437802341727 0.1786836727711514 0 0.4356833544059 0.1781752104963147 0 0.43638249810641516 0.1691923769741999 0 0.43794528990756676 0.1491131020424138 0 0.43818777870491527 0.1459975243779733 0 0.43970944440603654 0.12644665141807632 0 0.44036746200652144 0.11799221986785059 0 0.511426686 0.182908497 0 0.5114345077661031 0.18252757729720817 0 0.5114449778467136 0.18201768478166003 0 0.5116299492708319 0.17300958367364289 0 0.5120434148070966 0.1528738282557222 0 0.512107569712798 0.14974948686143214 0 0.5125101545770556 0.13014361974398306 0 0.512684245329167 0.12166540693643751 0 0.591497531 0.18226441599999998 0 0.5914844732933748 0.18188363982388375 0 0.5914669944734828 0.18137393943065733 0 0.5911582019887242 0.17236923248365696 0 0.5904679599639694 0.15224106401389145 0 0.5903608593518861 0.14911789983970986 0 0.5896887815909407 0.12951942001388556 0 0.5893981533699914 0.1210444017108264 0 0.676206219 0.17725782099999998 0 0.6761767297883069 0.17687796393952365 0 0.6761372560403713 0.17636949385857106 0 0.6754398864935094 0.1673865224284089 0 0.6738810604475827 0.14730693923157584 0 0.673639186992095 0.1441913137355429 0 0.6721213826842191 0.12464014062283701 0 0.6714650348754079 0.11618557927680204 0 0.7652468499999999 0.16877584099999998 0 0.7652055468186695 0.16839708639974807 0 0.7651502590956287 0.1678900920529542 0 0.7641735093219088 0.15893319192626204 0 0.7619901862982993 0.13891188576071486 0 0.7616514134855495 0.13580530275339933 0 0.7595255463309825 0.11631087306589288 0 0.7586062524263048 0.10788084941724145 0 0.8577460699999999 0.15746090399999998 0 0.8576958931941058 0.15708322253613094 0 0.8576287273909404 0.15657766467110937 0 0.8564421315350198 0.14764614238906182 0 0.8537897407982561 0.12768156317036727 0 0.8533781856318019 0.12458378213469595 0 0.8507955946512689 0.10514458657965127 0 0.8496787985515789 0.09673844796125357 0 0.9371791687077077 0.14609429103899294 0 0.9371239255323491 0.1457173173110273 0 0.9370499779747825 0.14521270680902607 0 0.935743571124439 0.13629792127367102 0 0.9328233675766122 0.11637075360640681 0 0.932370257542503 0.1132787774912032 0 0.9295269014564612 0.09387600897307752 0 0.9282973420679026 0.085485622586861 0 0.957516149926754 0.14311446085354837 0 0.9574596824150845 0.14273766857639045 0 0.957384095982141 0.14223330096129716 0 0.9560487356668069 0.13332280642798247 0 0.9530638126090013 0.1134052304123379 0 0.9526006604463577 0.1103147425747565 0 0.9496942879953364 0.09092131329636573 0 0.9484374782867866 0.08253496550030485 0 0.9606656624920139 0.14261675664668297 0 0.9606090424368866 0.14223998726183676 0 0.9605332518119131 0.14173565028999538 0 0.9591942841040475 0.13282569712079784 0 0.9562012974629363 0.11290933121317981 0 0.9557368941236377 0.1098190311406224 0 0.9528226702888715 0.09042678012531011 0 0.9515624653873509 0.08204094184841831 0 0.9809636410725998 0.13940915257427675 0 0.9809060381215853 0.1390325322083452 0 0.9808289318092037 0.13852839471064152 0 0.9794667202904623 0.12962196558454342 0 0.9764217768956287 0.10971347694973593 0 0.9759493117462317 0.10662439914517916 0 0.9729844984407358 0.08723981810602449 0 0.9717024170113321 0.07885729657557923 0 1.01954 0.13331309303303351 0 1.019480530140913 0.13293676294406878 0 1.0194009248177263 0.13243301400608448 0 1.01849599316568 0.12670653315760838 0 1.0164227491973215 0.11358687726737789 0 1.0159349714817154 0.1105001803434545 0 1.013975056591449 0.09809768004591739 0 1.0130808865121608 0.09243929930219401 0 1.0496047069999999 0.128562094 0 1.049542508440398 0.1281862052675492 0 1.0494592505259703 0.12768304712174894 0 1.0490372337168463 0.12513264459683535 0 1.0479883607044145 0.11879391987927775 0 1.047478201915029 0.11571084300550166 0 1.0465798640556794 0.11028185748839345 0 1.0460938350241529 0.1073446056008229 0 1.14
[...]
      <CellData Scalars="scalars">
        <DataArray type="Float64" Name="Strains in beam coordinate system for each element-ε_zz" format="Ascii" NumberOfComponents="1">-4.8120675992880576E-05 -4.816117548018571E-05 -4.8248990409864015E-05 -4.8752262177903557E-05 -4.925788756667251E-05 -4.966941313140941E-05 -5.017786939327257E-05 -3.492072458168319E-05 -3.505003392325211E-05 -3.533041502168613E-05 -3.693729316473848E-05 -3.8551686097904954E-05 -3.986563112180114E-05 -4.148906264681735E-05 -1.9859744543776808E-05 -2.0114200529979717E-05 -2.0752579511946823E-05 -2.3526342284701276E-05 -2.615767197231358E-05 -2.8449425025970085E-05 -3.1280977402359425E-05 -6.484911175599653E-07 -1.113439460816069E-06 -2.427912515839112E-06 -6.83293128313852E-06 -1.070911399583209E-05 -1.439470043631278E-05 -1.8948389598973937E-05 3.137237413136839E-05 3.0726039449682924E-05 2.8847259245932132E-05 2.2954544161916957E-05 1.7890432021874146E-05 1.2941685428112163E-05 6.827311475230067E-06 7.644044765171217E-05 7.570122818371877E-05 7.355244839199919E-05 6.681289095701347E-05 6.102101503251665E-05 5.536108384216909E-05 4.836801293225656E-05 0.00012185336882467812 0.00012104469732591972 0.00011869403280758878 0.00011132127241923986 0.00010498523124705686 9.87935314383493E-05 9.114343917414888E-05 0.0001659583075811614 0.00016510219568344713 0.00016261363034539853 0.00015480834983637456 0.00014810060727311888 0.00014154567380328793 0.00013344679185177914 0.00020743076478908643 0.00020654280826191659 0.00020396167623804362 0.00019586606421246138 0.0001889088150403374 0.00018211005897207012 0.00017370992446766594 0.00023903994018038946 0.00023813328344701197 0.00023372255445847684 0.0002200701308926769 0.00020879497350243152 0.0001977766754896557 0.0001841631284837672 0.00025690486498102834 0.0002559855731249759 0.00024793852406454275 0.00022324924569858834 0.00020341690369216422 0.0001840363622988243 0.00016009092980535968 0.0002662469467021408 0.0002653202381631257 0.000255418705849518 0.00022510046352371265 0.0002009030738938718 0.00017725692503359113 0.00014804116424690602 0.0002747126424181965 0.0002737830696239892 0.00026385093382056237 0.00023343898438044747 0.00020916680586503507 0.0001854475718848975 0.0001561415115153323 0.0002808527818809844 0.00027992118437948556 0.0002699674153399025 0.00023948922547605323 0.00021516417960358475 0.0001913932826377318 0.0001620233905871133 0.00028699298220310197 0.00028605950231888567 0.00027608562072770857 0.00024554584673791737 0.00022117164976115936 0.0001973527214023977 0.00016792348464859878 0.0002930226100621741 0.000292087302041212 0.0002820938874962522 0.00025149430409440553 0.0002270723724359505 0.00020320679683934732 0.00017371992556120414 0.00030601716739399 0.00030507694966600435 0.00029503107674746105 0.00026427086712818175 0.00023972073756411557 0.00021572988453858166 0.00018608822799636717 0.0003271443707374764 0.0003261964195646226 0.00031606791769529807 0.00028505470031180987 0.00026030264190951633 0.00023611446018692277 0.00020622899616283403 0.0003408415151850676 0.0003398889482156758 0.00032971112829580085 0.00029854690028483877 0.00027367431830627853 0.00024936835865519027 0.00021933737529917236 0.0003457747751940486 0.00034482056846422445 0.0003346252283206509 0.00030340735382641034 0.00027849195588100696 0.00025414415565368063 0.0002240614765955942 0.0003413123188985793 0.00034035902213647905 0.0003301734046559004 0.0002989853007106416 0.0002740936630335765 0.0002497690817918798 0.00021971509071735766 0.0003285402675490435 0.0003275891843053311 0.00031742721743648473 0.0002863115310681159 0.00026147769081562544 0.000237209590315287 0.00020722538345122252 0.0003090854135075406 0.0003081368220310882 0.0002980014787585559 0.00026696731317091705 0.00024219853573021678 0.00021799401584565527 0.00018808836537029437 0.00028644732452641594 0.00028550080652750597 0.0002753876175829244 0.00024442128798895867 0.00021970665135075582 0.00019555503888698874 0.00016571475764189453 0.00027204156772679883 0.0002710960925693435 0.00026099404599361437 0.00023006183405217478 0.00020537442716306358 0.00018124942412743307 0.00015144201989295496 0.00026854291744946 0.0002675976827227659 0.00025749820505932363 0.00022657385906254396 0.00020189273008775562 0.00017777386194927234 0.00014797403762510284 0.00026479986020846427 0.0002638548280116907 0.00025375751430430093 0.00022283979428640085 0.00019816395359286923 0.00017405025326329944 0.00014425681397332296 0.00025540141677535337 0.00025445690269950056 0.000246067208040725 0.00022050190876413584 0.0001994729835338362 0.00017910976779536157 0.00015452772574955044 0.0002444439666636603 0.00024350031720244523 0.00023852026227660323 0.00022364238876232983 0.0002098947769174259 0.00019701988515905612 0.00018284373660799807 0.0002230863583591867 0.00022214358049679167 0.00021886863638054976 0.00020933504654869906 0.0001992301634259007 0.00019010097568403938 0.0001811281852540622 0.0001895420137990854 0.00018859980024482528 0.0001853268163757208 0.00017579893295946507 0.00016570009820497856 0.00015657637482021869 0.00014760895513433092 0.00015581040093192428 0.00015486831738685078 0.00015159578513295453 0.0001420692163999434 0.00013197177511011876 0.0001228493106415041 0.00011388312830455247 0.00012317357985236374 0.000122231067091481 0.00011895704386304584 0.00010942613479957433 9.932409308820956E-05 9.019747240012941E-05 8.122720504627386E-05 9.277440953615406E-05 9.183100448948617E-05 8.855388171215539E-05 7.901394964652401E-05 6.89023442362955E-05 5.9767083289701456E-05 5.0788323698518973E-05 6.55497998728806E-05 6.460516787746522E-05 6.132378302659435E-05 5.177144376880261E-05 4.164668767463729E-05 3.249954583232834E-05 2.3509108883818484E-05 4.216024967307031E-05 4.1214206811517905E-05 3.792792101002165E-05 2.83613147444918E-05 1.8221436702744405E-05 9.060633040024337E-06 5.676831952564248E-08 6.220760040192771E-06 5.682536996228354E-06 3.8129020998601485E-06 -1.62973496649173E-06 -7.398518017295472E-06 -1.2610285721370706E-05 -1.7732767666172464E-05 -5.955895117882651E-05 -5.9507164270322725E-05 -5.9394874855539474E-05 -5.8751338585373084E-05 -5.810479272793835E-05 -5.757857281291999E-05 -5.692840710309528E-05 -6.622889655013523E-05 -6.608208815214404E-05 -6.576376389661328E-05 -6.39394316164677E-05 -6.210656759155792E-05 -6.061481021605647E-05 -5.877168443299792E-05 -7.186996905821822E-05 -7.164766699500156E-05 -7.116565002768453E-05 -6.840318660312351E-05 -6.562780413244616E-05 -6.336893647276025E-05 -6.057801531328908E-05 -7.912555168254352E-05 -7.886323804383973E-05 -7.829446408473033E-05 -7.503479198723559E-05 -7.175987557780632E-05 -6.909444014914302E-05 -6.580118828236701E-05 -8.451090692742613E-05 -8.412402221482342E-05 -8.315580559955882E-05 -7.892771703315559E-05 -7.491183521711558E-05 -7.141922786389164E-05 -6.710397206657205E-05 -8.887645939322372E-05 -8.823301164350172E-05 -8.641792833087063E-05 -8.030369946313121E-05 -7.491401661859857E-05 -6.979981343301935E-05 -6.348101125651086E-05 -0.00010848039722300374 -0.00010766625155637193 -0.00010529967460362578 -9.787700553404071E-05 -9.149807357977535E-05 -8.526446008395665E-05 -7.756258178628575E-05 -0.00014000948698364308 -0.0001391438226959879 -0.00013662749025580465 -0.00012873511939887227 -0.00012195253267942784 -0.00011532446007824283 -0.00010713521181049325 -0.0001699523669933688 -0.00016904961464198133 -0.0001664254737831721 -0.00015819496635584534 -0.0001511217900717074 -0.00014420974782713934 -0.00013566964372993607 -0.00019799715611086276 -0.00019707355220277144 -0.00019438879956950122 -0.00018596818586102335 -0.00017873163505214608 -0.00017165994011813254 -0.0001629225787503542 -0.0002229799407740999 -0.00022204492737013724 -0.0002193270093574046 -0.00021080237383124139 -0.00020347642821160893 -0.0001963173749701585 -0.0001874720789265102 -0.00023565628503941524 -0.00023471417340692978 -0.0002301365472077179 -0.0002159671892698251 -0.00020426423865050982 -0.0001928278929668591 -0.00017869783137663484 -0.00024253699695284077 -0.00024158975461971189 -0.00023330790133234246 -0.00020789788134833233 -0.00018748572104047845 -0.00016753857018730596 -0.00014289306908919221 -0.0002509327552183548 -0.00024998382755157225 -0.00023984489221176296 -0.00020879972780467893 -0.0001840221720609118 -0.00015980907385181896 -0.0001298928245140834 -0.0002538491019857372 -0.00025289982163916036 -0.00024275711804835144 -0.0002117004153517045 -0.0001869136507466448 -0.0001626915534633423 -0.00013276418541020973 -0.00025609218309227076 -0.0002551421863271077 -0.00024499182807306494 -0.00021391168699057029 -0.00018910621590020193 -0.0001648658382840608 -0.00013491588415002052 -0.0002619935554480359 -0.000261041949491133 -0.0002508743976283767 -0.00021974161014945366 -0.00019489412127476614 -0.0001706126830815135 -0.00014061199696546045 -0.00026955494435753485 -0.0002686015294068865 -0.0002584146491261092 -0.00022722267851847707 -0.0002023279548071028 -0.00017800035783404906 -0.00014794264070305813 -0.0002740940087659142 -0.00027313961288867486 -0.00026294225177608366 -0.00023171818912565983 -0.00020679785233107632 -0.00018244522576650048 -0.0001523565835760921 -0.00027355609420434473 -0.00027260169388481075 -0.00026240428530797185 -0.00023118007732321824 -0.00020625962453538655 -0.00018190688462000492 -0.0001518181023801514 -0.0002684718214773141 -0.00026751788860071086 -0.00025732547447583626 -0.00022611655937708694 -0.0002012083120435568 -0.00017686749953000396 -0.00014679345407120914 -0.00025949599063827356 -0.00025854269232124586 -0.0002483570582268533 -0.00021716890341051478 -0.00019227722513256914 -0.00016795260421492052 -0.0001378985641191761 -0.0002473860553835954 -0.0002464333847656351 -0.00023625445739977515 -0.00020508683841712614 -0.0001802115500592761 -0.00015590294568292877 -0.00012586869466328513 -0.00023645703210494143 -0.0002355047722499477 -0.00022533023373194486 -0.0001941760532907913 -0.0001693114904103989 -0.00014501336717439114 -0.00011499206602200679 -0.00023071045474709511 -0.00022975835152875816 -0.0002195854866145403 -0.00018843643070598465 -0.00016357595778274117 -0.00013928183133056233 -0.00010926546836413596 -0.0002289075239775738 -0.00022795547116372133 -0.00021778314480246926 -0.00018663573792951788 -0.0001617765811233699 -0.00013748374080582105 -0.00010746896691006789 -0.00022710459358809732 -0.00022615259206749586 -0.0002159808137553454 -0.0001848350849949268 -0.0001599772675125549 -0.0001356857360076452 -0.00010567257920215084 -0.00022535087645666278 -0.00022439892494969103 -0.00021422768101436954 -0.00018308358850232959 -0.0001582270769313995 -0.0001339368215879611 -0.00010392524153090435 -0.00022163730515683974 -0.00022068554986517383 -0.0002122318132695269 -0.0001864713880666065 -0.00016528183696190837 -0.00014476311607915216 -0.00011999346337466766 -0.00021309045075749893 -0.00021213905676554235 -0.00020711877179492103 -0.00019212080573006548 -0.0001782617361276809 -0.00016528258816125797 -0.000150992053217386 -0.0001988563927960881 -0.00019790539608476143 -0.00019460190200778658 -0.0001849852012568844 -0.00017479222685492932 -0.0001655834536476975 -0.00015653244117626013 -0.0001800289732544188 -0.00017907843801924576 -0.00017577654698013853 -0.0001661645127838316 -0.0001559764845762905 -0.00014677217997466878 -0.00013772555955461524 -0.000160624406203454 -0.0001596743192491114 -0.00015637398541104445 -0.00014676648433514406 -0.00013658326089188355 -0.00012738329712178262 -0.00011834094316799402 -0.0001411009882024799 -0.0001401513158470555 -0.0001368524222085754 -0.00012724911365372254 -0.00011707033396521996 -0.0001078743848750486 -9.883597682342239E-05 -0.00012187271916604631 -0.00012092344355359619 -0.00011762592808819489 -0.00010802663149091575 -9.785210417356514E-05 -8.865999685910983E-05 -7.962536476755298E-05 -0.00010332665882213939 -0.00010237778034925959 -9.908164443459981E-05 -8.948636380536632E-05 -7.931609310996417E-05 -7.012783141157799E-05 -6.109697905465235E-05 -5.6658132152342494E-05 -5.6248629423298476E-05 -5.482613255891431E-05 -5.068514536622454E-05 -4.6296012591145654E-05 -4.233068051944172E-05 -3.843328080867488E-05 0.00013388589141163492 0.00010706887633303416 8.025186125443347E-05 5.3434846175832735E-05 2.6617831097232023E-05 -1.9918398136870257E-07 -2.7016199059969412E-05 -5.383321413857014E-05 -8.065022921717087E-05 -0.00010746012035788324 0.0001393126851665274 0.0001116240393370498 8.393539350757223E-05 5.6246747678094645E-05 2.855810184861704E-05 8.694560191394584E-07 -2.6819189810338127E-05 -5.450783563981573E-05 -8.219648146929333E-05 -0.0001098851563230632 0.0001447935089406657 0.00011630215330067799 8.781079766069036E-05 5.9319442020702686E-05 3.082808638071504E-05 2.3367307407273782E-06 -2.6154624899260268E-05 -5.464598053924795E-05 -8.313733617923561E-05 -0.00011162870128080759 0.00013031118401355535 0.00010604643556613921 8.178168711872303E-05 5.751693867130685E-05 3.325219022389066E-05 8.987441776474493E-06 -1.5277306670941675E-05 -3.9542055118357864E-05 -6.380680356577404E-05 -8.807155130829184E-05 0.00012710857586389668 0.00010336999910324711 7.963142234259756E-05 5.5892845581947974E-05 3.2154268821298417E-05 8.415692060648855E-06 -1.5322884700000708E-05 -3.9061461460650275E-05 -6.280003822129986E-05 -8.653861484705333E-05 0.00012366883951502112 0.00010048138224519561 7.72939249753701E-05 5.4106467705544595E-05 3.09190104357191E-05 7.731553165893607E-06 -1.545590410393189E-05 -3.86433613737574E-05 -6.18308186435829E-05 -8.501827542062601E-05</DataArray>