<?xml version="1.0" encoding="utf-8"?>
<VTKFile xmlns:xsi="http://www.w3.org/2001/XMLSchema-instance" xmlns:xsd="http://www.w3.org/2001/XMLSchema" type="UnstructuredGrid">
  <UnstructuredGrid>
    <Piece NumberOfPoints="664" NumberOfCells="578">
      <PointData />
      <Points>
        <DataArray type="Float64" format="Ascii" NumberOfComponents="3">0 0 0 6.487872208438272E-05 0 0 0.0003810000000000202 0 0 0.0008909999999999751 0 0 0.005115542493796532 0 0 0.0056476842431761876 0 0 0.008986980148883383 0 0 0.010431000000000024 0 0 0.001018514000000026 0.007048164 0 0.0010818574838835637 0.007034133617653322 0 0.0013904983206567967 0.006965770643559765 0 0.0018884300884651761 0.006855480323915355 0 0.006013006386734854 0.005941899653342394 0 0.006532555959270603 0.005826821057979222 0 0.009792833436846893 0.0051046798563562515 0 0.011202683156879889 0.00479240257997875 0 0.002726842000000007 0.012310974 0 0.0027852835739745063 0.012282798993155614 0 0.0030700398770379667 0.012145516400607835 0 0.0035294386100809816 0.011924037724256119 0 0.007334829726426739 0.010089437567947026 0 0.007814173344984132 0.009858343351703706 0 0.010822150420155663 0.00840818092593363 0 0.012122897263473098 0.007781083660735759 0 0.007790000000000019 0.021093814536027905 0 0.007983143644661406 0.02098247051405631 0 0.008340998968645152 0.020776173013943636 0 0.009462913811600693 0.020129408212837707 0 0.013910724500608151 0.017565321095446146 0 0.014547429805504775 0.0171982713300649 0 0.018542882934792282 0.014894960642344506 0 0.020270646450159857 0.013898934399005958 0 0.013071449000000013 0.030255314999999998 0 0.013367250331222102 0.03001518467611892 0 0.01376320486907845 0.029693750384309606 0 0.0153780618650608 0.02838281600864347 0 0.02007003066642682 0.02457389471928679 0 0.02079805462393769 0.023982887816146787 0 0.025366550562109846 0.02027420129756265 0 0.027342116373211323 0.018670444965201944 0 0.03194620100000001 0.050850308 0 0.03220368637234089 0.050569483707905316 0 0.03254835183137983 0.05019357717518015 0 0.033954031965305886 0.04866048376124154 0 0.03803823716086807 0.044206079138618036 0 0.038671958175571675 0.04351491655442248 0 0.042648684287040106 0.03917773310607854 0 0.044368349632539994 0.03730219431760549 0 0.05854669499999998 0.07195117599999999 0 0.0587631159766418 0.07163761107710616 0 0.05905281334694967 0.07121787850315378 0 0.06023431218187175 0.06950604540443941 0 0.06366715836335823 0.0645323124285188 0 0.06419981200373293 0.06376056885603856 0 0.06754232012781186 0.058917723590010594 0 0.06898772904633249 0.05682352023172823 0 0.09261240300000001 0.092721824 0 0.09279282334170985 0.09238625060967039 0 0.09303433088573088 0.09193705788245753 0 0.09401929281887678 0.09010507479164316 0 0.09688110081323886 0.08478224587978511 0 0.09732514996827268 0.08395633523680814 0 0.10011164722594101 0.07877358076999898 0 0.10131661901304079 0.07653238964921665 0 0.13389250600000002 0.112460696 0 0.1340411078163155 0.11210987054455564 0 0.13424002363343068 0.11164026166718917 0 0.13505127989688726 0.10972501355538257 0 0.13740838587439558 0.104160258032244 0 0.13777412351986296 0.10329680912411054 0 0.1400692003927 0.09787849453579142 0 0.14106166606744036 0.09553543957868045 0 0.18213153000000004 0.130640124 0 0.18225487784844052 0.1302796433371551 0 0.18241998914162866 0.12979711016641785 0 0.18309337737544973 0.12782915174680434 0 0.18504990763921664 0.12211124636559431 0 0.18535349041351018 0.12122403413539166 0 0.18725853303875695 0.115656599948424 0 0.1880823352550799 0.1132490608405461 0 0.21792999999999996 0.1412163135452728 0 0.21803794895502115 0.14085092604807314 0 0.21818244755623062 0.14036182467386887 0 0.21975351268622922 0.135044056144518 0 0.2234627890725191 0.12248883303056968 0 0.2240383346885646 0.12054071623657323 0 0.22764999853837317 0.1083158937308867 0 0.22921179912207418 0.10302948399869793 0 0.23692238100000002 0.146827364 0 0.23701218534343924 0.14645709898693576 0 0.2371323958819012 0.14596146865448759 0 0.23925611539472916 0.13720533278123656 0 0.24400325312928578 0.11763279377044013 0 0.244739837311038 0.11459584320396848 0 0.24936205036836945 0.09553837100924564 0 0.2513608452039722 0.0872973019520682 0 0.24943539793343059 0.14965569376799595 0 0.24952163286751736 0.14928458120266969 0 0.2496370654564524 0.14878781635144553 0 0.2516763745276381 0.14001163731315217 0 0.25623483009852377 0.1203942959334376 0 0.256942137628763 0.1173503936587798 0 0.2613806338425201 0.0982492981048472 0 0.2632999835565772 0.0899893648923358 0 0.2705478591167058 0.15442776454501084 0 0.2706280518332571 0.1540552996094637 0 0.27073539641446753 0.15355672449888882 0 0.27263181734918474 0.1447485642120658 0 0.27687087590914083 0.12505973533563786 0 0.27752862456851835 0.12200474078554663 0 0.281656128955844 0.10283403898481416 0 0.2834409957179308 0.0945440057736866 0 0.2738237499408237 0.1551682174336986 0 0.2739030031479258 0.1547955514583748 0 0.2740090901180625 0.15429670723943745 0 0.2758832932571439 0.14548379270487755 0 0.2800726885092082 0.1257843366864495 0 0.28072273121837904 0.12272769318805886 0 0.284801879226968 0.10354664390695786 0 0.286565835122574 0.09525213610972501 0 0.29493621112409896 0.1599402882107135 0 0.29500939864116543 0.1595663836943652 0 0.2951073661836954 0.1590658815858675 0 0.29683812610172416 0.15022367766907477 0 0.3007068835655532 0.13045875126683215 0 0.30130717488007486 0.12739194913142957 0 0.305074122936961 0.10814715237135122 0 0.3067030734480469 0.09982507809672275 0 0.297772883 0.160581464 0 0.2978452542716757 0.1602074006376721 0 0.29794212920226515 0.15970668590069778 0 0.299653586309346 0.15086072554748445 0 0.3034791963134092 0.13108740240500757 0 0.30407279270182513 0.12801929739903736 0 0.30779772875841294 0.10876632486557303 0 0.3094085119180185 0.10044071512137223 0 0.36417837699999994 0.171448001 0 0.36422900918704393 0.17107038031513866 0 0.364296784555528 0.17056490380784395 0 0.36549414939874664 0.1616348188456376 0 0.3681706119894707 0.14167345245952928 0 0.3685859022375349 0.1385761699393412 0 0.3711919316021873 0.11914010266865678 0 0.3723188632193342 0.11073531682187433 0 0.435614216 0.179063524 0 0.4356437802341727 0.1786836727711514 0 0.4356833544059 0.1781752104963147 0 0.43638249810641516 0.1691923769741999 0 0.43794528990756676 0.1491131020424138 0 0.43818777870491527 0.1459975243779733 0 0.43970944440603654 0.12644665141807632 0 0.44036746200652144 0.11799221986785059 0 0.511426686 0.182908497 0 0.5114345077661031 0.18252757729720817 0 0.5114449778467136 0.18201768478166003 0 0.5116299492708319 0.17300958367364289 0 0.5120434148070966 0.1528738282557222 0 0.512107569712798 0.14974948686143214 0 0.5125101545770556 0.13014361974398306 0 0.512684245329167 0.12166540693643751 0 0.591497531 0.18226441599999998 0 0.5914844732933748 0.18188363982388375 0 0.5914669944734828 0.18137393943065733 0 0.5911582019887242 0.17236923248365696 0 0.5904679599639694 0.15224106401389145 0 0.5903608593518861 0.14911789983970986 0 0.5896887815909407 0.12951942001388556 0 0.5893981533699914 0.1210444017108264 0 0.676206219 0.17725782099999998 0 0.6761767297883069 0.17687796393952365 0 0.6761372560403713 0.17636949385857106 0 0.6754398864935094 0.1673865224284089 0 0.6738810604475827 0.14730693923157584 0 0.673639186992095 0.1441913137355429 0 0.6721213826842191 0.12464014062283701 0 0.6714650348754079 0.11618557927680204 0 0.7652468499999999 0.16877584099999998 0 0.7652055468186695 0.16839708639974807 0 0.7651502590956287 0.1678900920529542 0 0.7641735093219088 0.15893319192626204 0 0.7619901862982993 0.13891188576071486 0 0.7616514134855495 0.13580530275339933 0 0.7595255463309825 0.11631087306589288 0 0.7586062524263048 0.10788084941724145 0 0.8577460699999999 0.15746090399999998 0 0.8576958931941058 0.15708322253613094 0 0.8576287273909404 0.15657766467110937 0 0.8564421315350198 0.14764614238906182 0 0.8537897407982561 0.12768156317036727 0 0.8533781856318019 0.12458378213469595 0 0.8507955946512689 0.10514458657965127 0 0.8496787985515789 0.09673844796125357 0 0.9371791687077077 0.14609429103899294 0 0.9371239255323491 0.1457173173110273 0 0.9370499779747825 0.14521270680902607 0 0.935743571124439 0.13629792127367102 0 0.9328233675766122 0.11637075360640681 0 0.932370257542503 0.1132787774912032 0 0.9295269014564612 0.09387600897307752 0 0.9282973420679026 0.085485622586861 0 0.957516149926754 0.14311446085354837 0 0.9574596824150845 0.14273766857639045 0 0.957384095982141 0.14223330096129716 0 0.9560487356668069 0.13332280642798247 0 0.9530638126090013 0.1134052304123379 0 0.9526006604463577 0.1103147425747565 0 0.9496942879953364 0.09092131329636573 0 0.9484374782867866 0.08253496550030485 0 0.9606656624920139 0.14261675664668297 0 0.9606090424368866 0.14223998726183676 0 0.9605332518119131 0.14173565028999538 0 0.9591942841040475 0.13282569712079784 0 0.9562012974629363 0.11290933121317981 0 0.9557368941236377 0.1098190311406224 0 0.9528226702888715 0.09042678012531011 0 0.9515624653873509 0.08204094184841831 0 0.9809636410725998 0.13940915257427675 0 0.9809060381215853 0.1390325322083452 0 0.9808289318092037 0.13852839471064152 0 0.9794667202904623 0.12962196558454342 0 0.9764217768956287 0.10971347694973593 0 0.9759493117462317 0.10662439914517916 0 0.9729844984407358 0.08723981810602449 0 0.9717024170113321 0.07885729657557923 0 1.01954 0.13331309303303351 0 1.019480530140913 0.13293676294406878 0 1.0194009248177263 0.13243301400608448 0 1.01849599316568 0.12670653315760838 0 1.0164227491973215 0.11358687726737789 0 1.0159349714817154 0.1105001803434545 0 1.013975056591449 0.09809768004591739 0 1.0130808865121608 0.09243929930219401 0 1.0496047069999999 0.128562094 0 1.049542508440398 0.1281862052675492 0 1.0494592505259703 0.12768304712174894 0 1.0490372337168463 0.12513264459683535 0 1.0479883607044145 0.11879391987927775 0 1.047478201915029 0.11571084300550166 0 1.0465798640556794 0.11028185748839345 0 1.0460938350241529 0.1073446056008229 0 1.14
[...]
      <CellData Scalars="scalars">
        <DataArray type="Float64" Name="Strains in beam coordinate system for each element-ε_zz" format="Ascii" NumberOfComponents="1">1.8558939129263926E-06 1.843981629630167E-06 1.8181522577152803E-06 1.6701228313002673E-06 1.5214011245931744E-06 1.4003573920181898E-06 1.2508030287883165E-06 5.198823648790577E-06 5.164422466795111E-06 5.089830476160184E-06 4.662340035230065E-06 4.232850375533253E-06 3.883291238113945E-06 3.4513969706801136E-06 8.99702327185413E-06 8.930432143676167E-06 8.763410178685387E-06 8.037329156199887E-06 7.3484470095321785E-06 6.7485534858367735E-06 6.007361091704202E-06 1.3834373650859406E-05 1.3713538046863501E-05 1.3371968306081846E-05 1.2226925950669403E-05 1.1219233782058955E-05 1.0261218555962989E-05 9.07755250357524E-06 2.1868123088177364E-05 2.1701079773193552E-05 2.1215514504527954E-05 1.969255946315198E-05 1.8383754437996006E-05 1.7104765302087094E-05 1.5524523171993343E-05 3.3126293694420035E-05 3.293604387565854E-05 3.238302141936056E-05 3.064848974635256E-05 2.915785889498219E-05 2.7701186107279393E-05 2.590140873289756E-05 4.4406746119971655E-05 4.41992333711211E-05 4.359603064099738E-05 4.170411064981216E-05 4.007822260690641E-05 3.848937392195209E-05 3.6526287950526205E-05 5.5291613664284715E-05 5.507238552990668E-05 5.443512825338147E-05 5.24363976098066E-05 5.071871807287128E-05 4.904016899605099E-05 4.696625460995544E-05 6.544646187146913E-05 6.521942781371023E-05 6.455948010336557E-05 6.248958186851861E-05 6.0710741956815424E-05 5.8972425799816864E-05 5.682466680047267E-05 7.311819436041658E-05 7.288661231681073E-05 7.176017191988271E-05 6.827351782464281E-05 6.539396109316763E-05 6.25800035479242E-05 5.9103246677641E-05 7.742275795990768E-05 7.718813355301823E-05 7.51345324789022E-05 6.883384009461324E-05 6.37726189253191E-05 5.882669744309677E-05 5.271581402829029E-05 7.966146986759616E-05 7.942506980900021E-05 7.689922406507929E-05 6.91651480739768E-05 6.299247987730446E-05 5.696043124410671E-05 4.9507594379953424E-05 8.166830943986149E-05 8.143122980743617E-05 7.889812307265617E-05 7.114181411059341E-05 6.495140148615465E-05 5.8902012661026124E-05 5.1427751297583845E-05 8.312386356297433E-05 8.288630449066386E-05 8.034807512097186E-05 7.257608077995062E-05 6.63731494473997E-05 6.031152710286736E-05 5.282215073788324E-05 8.457943320342034E-05 8.434143097979123E-05 8.179846670487656E-05 7.401197420343088E-05 6.779747169756007E-05 6.172454178262466E-05 5.422119446304971E-05 8.600879116331484E-05 8.577035895441598E-05 8.322280044856069E-05 7.542224052779573E-05 6.91965106287701E-05 6.311260909194022E-05 5.559570589556671E-05 8.901340066598683E-05 8.877383416254383E-05 8.6214156145959E-05 7.837648658887406E-05 7.212113899897425E-05 6.600829449193048E-05 5.845563110055776E-05 9.37897706232652E-05 9.354845407256799E-05 9.097007745905803E-05 8.307515326958162E-05 7.677411000137686E-05 7.061661080934443E-05 6.30087747722126E-05 9.663738921090396E-05 9.639511495181106E-05 9.380650558417461E-05 8.58802489595314E-05 7.955419886099541E-05 7.337226251927111E-05 6.57342334082513E-05 9.72205975367672E-05 9.697812095353094E-05 9.438734982849318E-05 8.645447395718523E-05 8.012314095046208E-05 7.393604205048998E-05 6.629163439268414E-05 9.537768652489029E-05 9.513562889128549E-05 9.254933408554132E-05 8.463016459106218E-05 7.830977082471375E-05 7.213336195826492E-05 6.450216226358504E-05 9.138435939416873E-05 9.114300639245698E-05 8.856424031356144E-05 8.066812359089286E-05 7.436612854619704E-05 6.820769926009516E-05 6.059871405461454E-05 8.565912707702374E-05 8.541851140234911E-05 8.284762338562376E-05 7.497562909071353E-05 6.869288647420975E-05 6.25532710267043E-05 5.496753106979085E-05 7.91662227775799E-05 7.892620418221307E-05 7.636169573340036E-05 6.850923551460928E-05 6.224208330225339E-05 5.6117703093875524E-05 4.8550786883040505E-05 7.507592352626112E-05 7.483620160437355E-05 7.227486300014278E-05 6.44321087655496E-05 5.817270302737427E-05 5.2055892820737015E-05 4.449832964921995E-05 7.408573513467824E-05 7.384608124234659E-05 7.128546950834288E-05 6.344494093206056E-05 5.718731152117863E-05 5.107223717532E-05 4.351681872908431E-05 7.303360022040619E-05 7.279400351093286E-05 7.023400275427061E-05 6.239534497520507E-05 5.61392086722905E-05 5.0025593419904385E-05 4.247197774189576E-05 7.039179426817622E-05 7.01523435700935E-05 6.802539316418559E-05 6.154409216481832E-05 5.6212857971436745E-05 5.10503916223037E-05 4.4818364811018915E-05 6.731176728142742E-05 6.707255943506698E-05 6.581012863924182E-05 6.20386231910007E-05 5.85536556973723E-05 5.528991445429387E-05 5.169629295325504E-05 6.133574988686489E-05 6.109678611144062E-05 6.026669342308179E-05 5.78502359409576E-05 5.528897403869926E-05 5.297501944094259E-05 5.070070651659038E-05 5.1975453085136476E-05 5.1736646859896946E-05 5.090710145639819E-05 4.849223715852142E-05 4.593266391089343E-05 4.3620234916645895E-05 4.134742145982069E-05 4.257768340081839E-05 4.2338913436151675E-05 4.150949399164529E-05 3.909499636914563E-05 3.6535811769644446E-05 3.422373389689647E-05 3.1951265546308554E-05 3.347937032443601E-05 3.324048058878707E-05 3.2410645093703874E-05 2.999493631907219E-05 2.7434467990046877E-05 2.5121230340615375E-05 2.284762208213849E-05 2.4982689251232636E-05 2.4743549897825276E-05 2.3912847301124717E-05 2.1494614333447595E-05 1.8931470550983082E-05 1.661581578138856E-05 1.433983181181009E-05 1.7337862821471866E-05 1.7098378668486417E-05 1.6266478335400033E-05 1.3844758673897346E-05 1.1277919260069032E-05 8.958925697523133E-06 6.6796601337559E-06 1.0724967981971662E-05 1.0485084698369341E-05 9.651797898207866E-06 7.22604213473212E-06 4.6549247585172385E-06 2.332066300028962E-06 4.9002052051786735E-08 3.04944365333096E-07 1.8498000588614954E-07 -2.317423088820974E-07 -1.4448499167575004E-06 -2.7306520971706515E-06 -3.892301307877774E-06 -5.034049644701679E-06 -1.0485394610964786E-06 -1.0369942461173523E-06 -1.0119607874497457E-06 -8.684927797892413E-07 -7.243538239486771E-07 -6.07039965664596E-07 -4.6209401100439845E-07 -2.7501637132391656E-06 -2.714374951816562E-06 -2.6367742764321615E-06 -2.1920409122440697E-06 -1.7452276903498683E-06 -1.3815690063593546E-06 -9.322541863332417E-07 -4.195802609692186E-06 -4.140682403026302E-06 -4.021165406780141E-06 -3.336207504610999E-06 -2.648046301124927E-06 -2.0879558978639115E-06 -1.3959418478264398E-06 -6.06218343099064E-06 -5.9967826551194064E-06 -5.854974328244296E-06 -5.042263691788622E-06 -4.225752300507284E-06 -3.5611984254947244E-06 -2.740115586299522E-06 -7.450634472638174E-06 -7.353862470012427E-06 -7.1116479800948175E-06 -6.054218921409743E-06 -5.049929568276386E-06 -4.17643131159713E-06 -3.097189348539269E-06 -8.579867795075408E-06 -8.418379000343394E-06 -7.962807446838486E-06 -6.428439026086007E-06 -5.075971843700227E-06 -3.7925487288225624E-06 -2.2068282407243145E-06 -1.3676541827037761E-05 -1.347165363979354E-05 -1.2876080044434217E-05 -1.100808851354172E-05 -9.402764235306943E-06 -7.834010851869699E-06 -5.895753427600851E-06 -2.1924541625317535E-05 -2.1706170695786568E-05 -2.1071405161609146E-05 -1.908048976310078E-05 -1.7369526532121942E-05 -1.5697540757082015E-05 -1.3631735592319684E-05 -2.9843003350338655E-05 -2.961484512618136E-05 -2.895162966364135E-05 -2.6871482261481523E-05 -2.508383436706162E-05 -2.3336910882013847E-05 -2.11785171852911E-05 -3.735125040133569E-05 -3.7117518123118855E-05 -3.643809987474906E-05 -3.430713311635391E-05 -3.2475811819234046E-05 -3.068620985533892E-05 -2.84750851944278E-05 -4.414861989385396E-05 -4.391179745406236E-05 -4.3223396654457777E-05 -4.1064256501937805E-05 -3.920872340683016E-05 -3.739546121395363E-05 -3.5155103395704147E-05 -4.764291589035964E-05 -4.740413102404923E-05 -4.624371568026903E-05 -4.265183460215922E-05 -3.9685207552562455E-05 -3.6786163238245556E-05 -3.3204278268412174E-05 -4.959387348118142E-05 -4.935364639027387E-05 -4.725322036358932E-05 -4.0808788229072046E-05 -3.563191006657718E-05 -3.057296637329023E-05 -2.4322439505270423E-05 -5.197905173731417E-05 -5.173834071592049E-05 -4.916643395535046E-05 -4.12913202924706E-05 -3.500608806719101E-05 -2.886403972669105E-05 -2.1275293833370452E-05 -5.2815724940891024E-05 -5.257491120436587E-05 -5.0001906971235316E-05 -4.21234328750425E-05 -3.5835518643552765E-05 -2.9690849395630175E-05 -2.2098865266571637E-05 -5.348985550261182E-05 -5.324883066870351E-05 -5.067357093940274E-05 -4.27881905707979E-05 -3.6494764352081215E-05 -3.0344708685520986E-05 -2.274606942122905E-05 -5.5263435191128146E-05 -5.502192492181106E-05 -5.244147849768219E-05 -4.4540216600270784E-05 -3.823411512365755E-05 -3.207167295426996E-05 -2.445772967130988E-05 -5.769752798779084E-05 -5.745543478259563E-05 -5.48687599077826E-05 -4.694842665139604E-05 -4.062710407129886E-05 -3.444978755040869E-05 -2.6817466412436197E-05 -5.953486004563754E-05 -5.9292388998771536E-05 -5.670167702776775E-05 -4.8768982284620625E-05 -4.243779383867492E-05 -3.625083620624096E-05 -2.860660309011738E-05 -6.013150717314835E-05 -5.9888933558902214E-05 -5.729712569400529E-05 -4.936107535138497E-05 -4.3027208757180447E-05 -3.683763398738719E-05 -2.919016729358943E-05 -5.961589464024432E-05 -5.937336046253376E-05 -5.67819739621921E-05 -4.884721382721738E-05 -4.2514376964775286E-05 -3.632580846842365E-05 -2.867958506562982E-05 -5.814705899215213E-05 -5.79046255575835E-05 -5.5314315459835763E-05 -4.738285124246742E-05 -4.1052644895397974E-05 -3.4866646988644295E-05 -2.722359965190752E-05 -5.590892344487093E-05 -5.566660462169529E-05 -5.307751910358972E-05 -4.5149804518213934E-05 -3.882259080196118E-05 -3.2639517350897084E-05 -2.500008329589859E-05 -5.379008119481248E-05 -5.354784123543769E-05 -5.095959834739269E-05 -4.30344638740196E-05 -3.670930937923316E-05 -3.052824823850805E-05 -2.2891300473257615E-05 -5.264988576323543E-05 -5.240767665597307E-05 -4.981976341114951E-05 -4.189563829701018E-05 -3.557128938515936E-05 -2.9391015475383796E-05 -2.1755040365394987E-05 -5.229216096021494E-05 -5.2049961853350754E-05 -4.946215545902185E-05 -4.1538357518403426E-05 -3.5214269728060795E-05 -2.9034250991183963E-05 -2.139859115749711E-05 -5.19344362538816E-05 -5.169224737352654E-05 -4.9104550245602753E-05 -4.1181086875962164E-05 -3.485726611113579E-05 -2.8677508316666526E-05 -2.1042170887740125E-05 -5.1586476097297935E-05 -5.1344297194962015E-05 -4.8756706678421014E-05 -4.0833569750146856E-05 -3.4510009522486525E-05 -2.833050632988573E-05 -2.0695483471730618E-05 -5.083139685831999E-05 -5.058925755679085E-05 -4.843853172835633E-05 -4.188479092281398E-05 -3.649392368862605E-05 -3.127372575534844E-05 -2.4972049262044186E-05 -4.909126483799232E-05 -4.884919900140249E-05 -4.7571889059995155E-05 -4.375596227042163E-05 -4.02297928790411E-05 -3.692750534132021E-05 -3.3291570976897446E-05 -4.615536941479235E-05 -4.591338564628296E-05 -4.5072802354591416E-05 -4.2625805997386345E-05 -4.0032175200636367E-05 -3.768897714590747E-05 -3.538592175089094E-05 -4.221627686751026E-05 -4.1974389633514765E-05 -4.1134141675469556E-05 -3.8688121497804554E-05 -3.609552537742866E-05 -3.375326209401341E-05 -3.1451125456211054E-05 -3.810679877222985E-05 -3.7865006399866095E-05 -3.702508796434697E-05 -3.458002704964722E-05 -3.198844767535742E-05 -2.964710296425943E-05 -2.7345869162189073E-05 -3.39334116150174E-05 -3.369170782994015E-05 -3.285209712164319E-05 -3.0407932022264862E-05 -2.7817302144364387E-05 -2.5476815249303756E-05 -2.317642456753592E-05 -2.9791632984150717E-05 -2.9550014637504404E-05 -2.8710700718194414E-05 -2.6267399592175003E-05 -2.3677685460595383E-05 -2.133802589030293E-05 -1.9038448359931718E-05 -2.5770529273269708E-05 -2.552899703163295E-05 -2.468998221681584E-05 -2.2247551804753924E-05 -1.9658760564019083E-05 -1.7319934773166233E-05 -1.5021176738284429E-05 -1.5442471587544462E-05 -1.5321646199705797E-05 -1.4901932915401835E-05 -1.3680118387426127E-05 -1.2385087531191485E-05 -1.1215100736253125E-05 -1.0065157651099517E-05 4.576372082563723E-05 3.894842145967141E-05 3.21331220937056E-05 2.5317822727739785E-05 1.8502523361773973E-05 1.1687223995808159E-05 4.871924629842349E-06 -1.943374736123466E-06 -8.758674102089281E-06 -1.557533773098424E-05 4.7042798750805035E-05 4.00059823932428E-05 3.2969166035680575E-05 2.593234967811834E-05 1.8895533320556105E-05 1.1858716962993876E-05 4.821900605431645E-06 -2.2149157521305906E-06 -9.251732109692824E-06 -1.6288542908985652E-05 4.833562414715005E-05 4.1094806425282756E-05 3.3853988703415474E-05 2.6613170981548182E-05 1.9372353259680897E-05 1.2131535537813605E-05 4.890717815946322E-06 -2.3500999059209744E-06 -9.590917627788262E-06 -1.6831733537723868E-05 3.9133469084270016E-05 3.2966804963588017E-05 2.680014084290601E-05 2.0633476722224004E-05 1.4466812601541994E-05 8.30014848085999E-06 2.1334843601779858E-06 -4.033179760504024E-06 -1.0199843881186028E-05 -1.6366508136858923E-05 3.8219466491756805E-05 3.218652409784786E-05 2.615358170393891E-05 2.0120639310029958E-05 1.4087696916121013E-05 8.054754522212065E-06 2.02181212830312E-06 -4.011130265605828E-06 -1.0044072659514778E-05 -1.6077015079256866E-05 3.724520072810398E-05 3.135232031743126E-05 2.5459439906758537E-05 1.956655949608582E-05 1.3673679085413102E-05 7.780798674740384E-06 1.8879182640676669E-06 -4.004962146605055E-06 -9.897842557277774E-06 -1.579072306232032E-05</DataArray>