<?xml version="1.0"?>
<VTKFile byte_order="LittleEndian" type="UnstructuredGrid" version="0.1">
<UnstructuredGrid>
<Piece NumberOfCells="578" NumberOfPoints="664">
<PointData>
</PointData>
<CellData>
<DataArray Name="MaterialId" format="ascii" type="Float64">
3 3 4 2 2 2 2 3 3 4 2 2 2 2 3 3 4 2 2 2 2 3 3 4 2 2 2 2 3 4 2 2 2 2 2 3 4 2 2 2 2 2 3 4 2 2 2 2 2 3 4 2 2 2 2 2 3 4 2 2 2 2 2 3 4 2 2 2 2 2 3 4 2 2 2 2 2 3 4 2 1 5 1 2 3 4 2 1 5 1 2 3 4 2 1 5 1 2 3 4 2 1 5 1 2 3 4 2 1 5 1 2 3 4 2 1 5 1 2 3 4 2 1 5 1 2 3 4 2 1 5 1 2 3 4 2 1 5 1 2 3 4 2 1 5 1 2 3 4 2 1 5 1 2 3 4 2 1 5 1 2 3 4 2 1 5 1 2 3 4 2 1 5 1 2 3 4 2 1 5 1 2 3 4 2 1 5 1 2 3 4 2 1 5 1 2 3 4 2 1 5 1 2 3 4 2 2 5 2 2 3 4 2 2 5 2 2 3 4 2 2 5 2 2 3 4 2 2 5 2 2 3 4 2 2 5 2 2 3 4 2 2 5 2 2 3 4 2 2 5 2 2 3 4 2 2 5 2 2 3 3 4 2 2 2 2 3 3 4 2 2 2 2 3 3 4 2 2 2 2 3 3 4 2 2 2 2 3 3 4 2 2 2 2 3 3 4 2 2 2 2 3 4 2 2 2 2 2 3 4 2 2 2 2 2 3 4 2 2 2 2 2 3 4 2 2 2 2 2 3 4 2 2 2 2 2 3 4 2 2 2 2 2 3 4 2 2 2 2 2 3 4 2 1 5 1 2 3 4 2 1 5 1 2 3 4 2 1 5 1 2 3 4 2 1 5 1 2 3 4 2 1 5 1 2 3 4 2 1 5 1 2 3 4 2 1 5 1 2 3 4 2 1 5 1 2 3 4 2 1 5 1 2 3 4 2 1 5 1 2 3 4 2 1 5 1 2 3 4 2 1 5 1 2 3 4 2 1 5 1 2 3 4 2 1 5 1 2 3 4 2 1 5 1 2 3 4 2 1 5 1 2 3 4 2 1 5 1 2 3 4 2 2 5 2 2 3 4 2 2 5 2 2 3 4 2 2 5 2 2 3 4 2 2 5 2 2 3 4 2 2 5 2 2 3 4 2 2 5 2 2 3 4 2 2 5 2 2 1 1 1 1 1 1 1 1 1 1 5 5 5 5 5 5 5 5 5 5 1 1 1 1 1 1 1 1 1 1 1 1 1 1 1 1 1 1 1 1 5 5 5 5 5 5 5 5 5 5 1 1 1 1 1 1 1 1 1 1 
</DataArray>
<DataArray Name="FiberAngle" format="ascii" type="Float64">
0 0 0 20 20 20 20 0 0 0 20 20 20 20 0 0 0 20 20 20 20 0 0 0 20 20 20 20 0 0 20 20 20 20 20 0 0 20 20 20 20 20 0 0 20 20 20 20 20 0 0 20 20 20 20 20 0 0 20 20 20 20 20 0 0 20 20 20 20 20 0 0 20 20 20 20 20 0 0 20 30 0 30 20 0 0 20 30 0 30 20 0 0 20 30 0 30 20 0 0 20 30 0 30 20 0 0 20 30 0 30 20 0 0 20 30 0 30 20 0 0 20 30 0 30 20 0 0 20 30 0 30 20 0 0 20 30 0 30 20 0 0 20 30 0 30 20 0 0 20 30 0 30 20 0 0 20 30 0 30 20 0 0 20 30 0 30 20 0 0 20 30 0 30 20 0 0 20 30 0 30 20 0 0 20 30 0 30 20 0 0 20 30 0 30 20 0 0 20 30 0 30 20 0 0 20 20 0 0 0 0 0 20 20 0 0 0 0 0 20 20 0 0 0 0 0 20 20 0 0 0 0 0 20 20 0 0 0 0 0 20 20 0 0 0 0 0 20 20 0 0 0 0 0 20 20 0 0 0 0 0 0 20 20 20 20 0 0 0 20 20 20 20 0 0 0 20 20 20 20 0 0 0 20 20 20 20 0 0 0 20 20 20 20 0 0 0 20 20 20 20 0 0 20 20 20 20 20 0 0 20 20 20 20 20 0 0 20 20 20 20 20 0 0 20 20 20 20 20 0 0 20 20 20 20 20 0 0 20 20 20 20 20 0 0 20 20 20 20 20 0 0 20 30 0 30 20 0 0 20 30 0 30 20 0 0 20 30 0 30 20 0 0 20 30 0 30 20 0 0 20 30 0 30 20 0 0 20 30 0 30 20 0 0 20 30 0 30 20 0 0 20 30 0 30 20 0 0 20 30 0 30 20 0 0 20 30 0 30 20 0 0 20 30 0 30 20 0 0 20 30 0 30 20 0 0 20 30 0 30 20 0 0 20 30 0 30 20 0 0 20 30 0 30 20 0 0 20 30 0 30 20 0 0 20 30 0 30 20 0 0 20 20 0 0 0 0 0 20 20 0 0 0 0 0 20 20 0 0 0 0 0 20 20 0 0 0 0 0 20 20 0 0 0 0 0 20 20 0 0 0 0 0 20 20 0 0 0 0 0 0 0 0 0 0 0 0 0 0 0 0 0 0 0 0 0 0 0 0 0 0 0 0 0 0 0 0 0 0 0 0 0 0 0 0 0 0 0 0 0 0 0 0 0 0 0 0 0 0 0 0 0 0 0 0 0 0 0 
</DataArray>
</CellData>
<Points>
<DataArray NumberOfComponents="3" format="ascii" type="Float64">
0 0 0 6.48787e-05 0 0 0.000381 0 0 0.000891 0 0 0.00511554 0 0 0.00564768 0 0 0.00898698 0 0 0.010431 0 0 0.00101851 0.00704816 0 0.00108186 0.00703413 0 0.0013905 0.00696577 0 0.00188843 0.00685548 0 0.00601301 0.0059419 0 0.00653256 0.00582682 0 0.00979283 0.00510468 0 0.0112027 0.0047924 0 0.00272684 0.012311 0 0.00278528 0.0122828 0 0.00307004 0.0121455 0 0.00352944 0.011924 0 0.00733483 0.0100894 0 0.00781417 0.00985834 0 0.0108222 0.00840818 0 0.0121229 0.00778108 0 0.00779 0.0210938 0 0.00798314 0.0209825 0 0.008341 0.0207762 0 0.00946291 0.0201294 0 0.0139107 0.0175653 0 0.0145474 0.0171983 0 0.0185429 0.014895 0 0.0202706 0.0138989 0 0.0130714 0.0302553 0 0.0133673 0.0300152 0 0.0137632 0.0296938 0 0.0153781 0.0283828 0 0.02007 0.0245739 0 0.0207981 0.0239829 0 0.0253666 0.0202742 0 0.0273421 0.0186704 0 0.0319462 0.0508503 0 0.0322037 0.0505695 0 0.0325484 0.0501936 0 0.033954 0.0486605 0 0.0380382 0.0442061 0 0.038672 0.0435149 0 0.0426487 0.0391777 0 0.0443683 0.0373022 0 0.0585467 0.0719512 0 0.0587631 0.0716376 0 0.0590528 0.0712179 0 0.0602343 0.069506 0 0.0636672 0.0645323 0 0.0641998 0.0637606 0 0.0675423 0.0589177 0 0.0689877 0.0568235 0 0.0926124 0.0927218 0 0.0927928 0.0923863 0 0.0930343 0.0919371 0 0.0940193 0.0901051 0 0.0968811 0.0847822 0 0.0973251 0.0839563 0 0.100112 0.0787736 0 0.101317 0.0765324 0 0.133893 0.112461 0 0.134041 0.11211 0 0.13424 0.11164 0 0.135051 0.109725 0 0.137408 0.10416 0 0.137774 0.103297 0 0.140069 0.0978785 0 0.141062 0.0955354 0 0.182132 0.13064 0 0.182255 0.13028 0 0.18242 0.129797 0 0.183093 0.127829 0 0.18505 0.122111 0 0.185353 0.121224 0 0.187259 0.115657 0 0.188082 0.113249 0 0.21793 0.141216 0 0.218038 0.140851 0 0.218182 0.140362 0 0.219754 0.135044 0 0.223463 0.122489 0 0.224038 0.120541 0 0.22765 0.108316 0 0.229212 0.103029 0 0.236922 0.146827 0 0.237012 0.146457 0 0.237132 0.145961 0 0.239256 0.137205 0 0.244003 0.117633 0 0.24474 0.114596 0 0.249362 0.0955384 0 0.251361 0.0872973 0 0.249435 0.149656 0 0.249522 0.149285 0 0.249637 0.148788 0 0.251676 0.140012 0 0.256235 0.120394 0 0.256942 0.11735 0 0.261381 0.0982493 0 0.2633 0.0899894 0 0.270548 0.154428 0 0.270628 0.154055 0 0.270735 0.153557 0 0.272632 0.144749 0 0.276871 0.12506 0 0.277529 0.122005 0 0.281656 0.102834 0 0.283441 0.094544 0 0.273824 0.155168 0 0.273903 0.154796 0 0.274009 0.154297 0 0.275883 0.145484 0 0.280073 0.125784 0 0.280723 0.122728 0 0.284802 0.103547 0 0.286566 0.0952521 0 0.294936 0.15994 0 0.295009 0.159566 0 0.295107 0.159066 0 0.296838 0.150224 0 0.300707 0.130459 0 0.301307 0.127392 0 0.305074 0.108147 0 0.306703 0.0998251 0 0.297773 0.160581 0 0.297845 0.160207 0 0.297942 0.159707 0 0.299654 0.150861 0 0.303479 0.131087 0 0.304073 0.128019 0 0.307798 0.108766 0 0.309409 0.100441 0 0.364178 0.171448 0 0.364229 0.17107 0 0.364297 0.170565 0 0.365494 0.161635 0 0.368171 0.141673 0 0.368586 0.138576 0 0.371192 0.11914 0 0.372319 0.110735 0 0.435614 0.179064 0 0.435644 0.178684 0 0.435683 0.178175 0 0.436382 0.169192 0 0.437945 0.149113 0 0.438188 0.145998 0 0.439709 0.126447 0 0.440367 0.117992 0 0.511427 0.182908 0 0.511435 0.182528 0 0.511445 0.182018 0 0.51163 0.17301 0 0.512043 0.152874 0 0.512108 0.149749 0 0.51251 0.130144 0 0.512684 0.121665 0 0.591498 0.182264 0 0.591484 0.181884 0 0.591467 0.181374 0 0.591158 0.172369 0 0.590468 0.152241 0 0.590361 0.149118 0 0.589689 0.129519 0 0.589398 0.121044 0 0.676206 0.177258 0 0.676177 0.176878 0 0.676137 0.176369 0 0.67544 0.167387 0 0.673881 0.147307 0 0.673639 0.144191 0 0.672121 0.12464 0 0.671465 0.116186 0 0.765247 0.168776 0 0.765206 0.168397 0 0.76515 0.16789 0 0.764174 0.158933 0 0.76199 0.138912 0 0.761651 0.135805 0 0.759526 0.116311 0 0.758606 0.107881 0 0.857746 0.157461 0 0.857696 0.157083 0 0.857629 0.156578 0 0.856442 0.147646 0 0.85379 0.127682 0 0.853378 0.124584 0 0.850796 0.105145 0 0.849679 0.0967384 0 0.937179 0.146094 0 0.937124 0.145717 0 0.93705 0.145213 0 0.935744 0.136298 0 0.932823 0.116371 0 0.93237 0.113279 0 0.929527 0.093876 0 0.928297 0.0854856 0 0.957516 0.143114 0 0.95746 0.142738 0 0.957384 0.142233 0 0.956049 0.133323 0 0.953064 0.113405 0 0.952601 0.110315 0 0.949694 0.0909213 0 0.948437 0.082535 0 0.960666 0.142617 0 0.960609 0.14224 0 0.960533 0.141736 0 0.959194 0.132826 0 0.956201 0.112909 0 0.955737 0.109819 0 0.952823 0.0904268 0 0.951562 0.0820409 0 0.980964 0.139409 0 0.980906 0.139033 0 0.980829 0.138528 0 0.979467 0.129622 0 0.976422 0.109713 0 0.975949 0.106624 0 0.972984 0.0872398 0 0.971702 0.0788573 0 1.01954 0.133313 0 1.01948 0.132937 0 1.0194 0.132433 0 1.0185 0.126707 0 1.01642 0.113587 0 1.01593 0.1105 0 1.01398 0.0980977 0 1.01308 0.0924393 0 1.0496 0.128562 0 1.04954 0.128186 0 1.04946 0.127683 0 1.04904 0.125133 0 1.04799 0.118794 0 1.04748 0.115711 0 1.04658 0.110282 0 1.04609 0.107345 0 1.14696 0.112228 0 1.1469 0.111853 0 1.14681 0.11135 0 1.14638 0.108802 0 1.1453 0.102468 0 1.14478 0.0993872 0 1.14385 0.0939625 0 1.14335 0.0910275 0 1.24377 0.0955004 0 1.2437 0.095125 0 1.24362 0.0946225 0 1.24318 0.0920753 0 1.24208 0.0857446 0 1.24155 0.0826654 0 1.24061 0.0772433 0 1.2401 0.0743098 0 1.33877 0.0790133 0 1.33871 0.0786378 0 1.33862 0.0781352 0 1.33818 0.0755875 0 1.33709 0.0692556 0 1.33657 0.0661758 0 1.33563 0.0607527 0 1.33513 0.0578186 0 1.43064 0.0633519 0 1.43058 0.0629762 0 1.4305 0.0624732 0 1.43007 0.0599235 0 1.42901 0.0535867 0 1.42849 0.0505046 0 1.42759 0.0450773 0 1.42709 0.0421409 0 1.51799 0.0490227 0 1.51793 0.0486465 0 1.51785 0.0481429 0 1.51744 0.0455901 0 1.51643 0.0392455 0 1.51593 0.0361596 0 1.51507 0.0307255 0 1.5146 0.0277856 0 1.59938 0.0364192 0 1.59933 0.0360424 0 1.59925 0.035538 0 1.59887 0.0329814 0 1.59792 0.026627 0 1.59746 0.0235364 0 1.59664 0.018094 0 1.5962 0.0151496 0 1.67341 0.0257899 0 1.67336 0.0254125 0 1.67329 0.0249072 0 1.67293 0.0223463 0 1.67206 0.0159815 0 1.67163 0.0128857 0 1.67088 0.00743441 0 1.67047 0.00448506 0 1.9 0 0 1.89671 -2.20963e-05 0 1.8923 -5.16741e-05 0 1.86997 -0.000201598 0 1.81446 -0.000574215 0 1.78746 -0.000755452 0 1.73992 -0.00107459 0 1.7142 -0.00124725 0 0.000437608 -0.00363827 0 0.000500654 -0.00362296 0 0.000807847 -0.00354836 0 0.00130344 -0.00342801 0 0.00540867 -0.00243107 0 0.00592578 -0.00230549 0 0.00917076 -0.00151746 0 0.010574 -0.00117669 0 0.00151895 -0.00625482 0 0.00157634 -0.00622454 0 0.00185593 -0.00607703 0 0.002307 -0.00583904 0 0.00604337 -0.00386768 0 0.00651402 -0.00361936 0 0.00946745 -0.0020611 0 0.0107446 -0.00138725 0 0.00323545 -0.00894111 0 0.00328699 -0.0089017 0 0.00353809 -0.00870966 0 0.00394319 -0.00839983 0 0.00729882 -0.00583341 0 0.00772151 -0.00551013 0 0.010374 -0.0034815 0 0.011521 -0.00260426 0 0.00673962 -0.0130809 0 0.00678814 -0.0130378 0 0.00702453 -0.012828 0 0.00740591 -0.0124893 0 0.010565 -0.00968454 0 0.0109629 -0.00933124 0 0.01346 -0.00711417 0 0.0145399 -0.00615544 0 0.00779 -0.014071 0 0.00794291 -0.0139087 0 0.00822623 -0.0136081 0 0.00911446 -0.0126658 0 0.0126358 -0.00892981 0 0.0131399 -0.00839501 0 0.0163032 -0.005039 0 0.0176711 -0.00358776 0 0.0112496 -0.0173318 0 0.0114681 -0.0170197 0 0.0117606 -0.0166019 0 0.0129535 -0.0148981 0 0.0164196 -0.00994739 0 0.0169574 -0.00917923 0 0.0203322 -0.00435885 0 0.0217916 -0.00227437 0 0.0343927 -0.032696 0 0.0345757 -0.0323618 0 0.0348206 -0.0319144 0 0.0358193 -0.0300899 0 0.0387211 -0.0247888 0 0.0391714 -0.0239663 0 0.0419969 -0.0188046 0 0.0432187 -0.0165726 0 0.0659522 -0.047276 0 0.0660932 -0.0469221 0 0.066282 -0.0464483 0 0.067052 -0.0445161 0 0.069289 -0.038902 0 0.0696361 -0.0380309 0 0.0718143 -0.0325645 0 0.0727563 -0.0302007 0 0.106196 -0.0613079 0 0.106307 -0.0609434 0 0.106456 -0.0604556 0 0.107062 -0.0584659 0 0.108824 -0.0526848 0 0.109097 -0.0517878 0 0.110812 -0.0461589 0 0.111553 -0.0437248 0 0.154522 -0.0742607 0 0.154609 -0.0738896 0 0.154724 -0.0733929 0 0.155196 -0.0713671 0 0.156567 -0.0654812 0 0.156779 -0.0645679 0 0.158114 -0.0588369 0 0.158691 -0.0563586 0 0.210402 -0.0855715 0 0.210475 -0.0851976 0 0.210573 -0.0846971 0 0.210973 -0.0826558 0 0.212133 -0.0767249 0 0.212313 -0.0758046 0 0.213443 -0.0700298 0 0.213932 -0.0675326 0 0.21793 -0.0866676 0 0.217985 -0.0862906 0 0.218058 -0.0857859 0 0.218857 -0.0802988 0 0.220744 -0.0673437 0 0.221036 -0.0653335 0 0.222873 -0.0527194 0 0.223667 -0.0472646 0 0.257437 -0.0924201 0 0.257482 -0.0920419 0 0.257543 -0.0915356 0 0.258623 -0.0825905 0 0.261038 -0.0625957 0 0.261412 -0.0594933 0 0.263763 -0.0400247 0 0.264779 -0.0316058 0 0.276389 -0.095032 0 0.276433 -0.0946536 0 0.276492 -0.094147 0 0.277528 -0.0851968 0 0.279846 -0.0651906 0 0.280205 -0.0620863 0 0.282462 -0.0426066 0 0.283438 -0.0341829 0 0.279639 -0.0953426 0 0.279682 -0.094964 0 0.279739 -0.0944573 0 0.280758 -0.0855051 0 0.283035 -0.0654941 0 0.283388 -0.0623892 0 0.285604 -0.0429049 0 0.286563 -0.0344792 0 0.300583 -0.0973441 0 0.300621 -0.096965 0 0.300672 -0.0964576 0 0.301572 -0.0874927 0 0.303585 -0.0674535 0 0.303897 -0.0643441 0 0.305857 -0.0448323 0 0.306704 -0.0363947 0 0.34329 -0.101425 0 0.343317 -0.101045 0 0.343355 -0.100537 0 0.344014 -0.0915509 0 0.345487 -0.0714649 0 0.345715 -0.0683482 0 0.347149 -0.0487908 0 0.34777 -0.0403335 0 0.419708 -0.105476 0 0.419721 -0.105096 0 0.419739 -0.104586 0 0.420061 -0.0955817 0 0.420779 -0.0754545 0 0.42089 -0.0723315 0 0.421589 -0.052734 0 0.421891 -0.0442594 0 0.502241 -0.107095 0 0.502243 -0.106714 0 0.502246 -0.106204 0 0.502301 -0.0971943 0 0.502423 -0.0770547 0 0.502442 -0.0739297 0 0.502561 -0.0543201 0 0.502613 -0.0458402 0 0.590182 -0.106511 0 0.590175 -0.10613 0 0.590166 -0.10562 0 0.590011 -0.096611 0 0.589663 -0.076474 0 0.589609 -0.0733495 0 0.58927 -0.0537424 0 0.589123 -0.0452637 0 0.682744 -0.103976 0 0.682731 -0.103595 0 0.682712 -0.103085 0 0.682394 -0.0940808 0 0.681682 -0.0739533 0 0.681572 -0.0708303 0 0.680879 -0.0512325 0 0.680579 -0.0427578 0 0.779 -0.0998333 0 0.778981 -0.0994527 0 0.778956 -0.0989433 0 0.778516 -0.0899441 0 0.777532 -0.0698282 0 0.777379 -0.0667069 0 0.776421 -0.0471203 0 0.776007 -0.0386504 0 0.877884 -0.0944298 0 0.877862 -0.0940495 0 0.877832 -0.0935404 0 0.877302 -0.0845459 0 0.876118 -0.0644407 0 0.875935 -0.0613211 0 0.874782 -0.041745 0 0.874284 -0.0332797 0 0.932106 -0.0910111 0 0.932083 -0.0906309 0 0.932051 -0.0901219 0 0.931491 -0.0811293 0 0.930238 -0.0610283 0 0.930044 -0.0579093 0 0.928825 -0.0383373 0 0.928297 -0.0298737 0 0.952324 -0.0897364 0 0.9523 -0.0893562 0 0.952267 -0.0888472 0 0.951696 -0.0798554 0 0.950418 -0.059756 0 0.95022 -0.0566372 0 0.948976 -0.0370668 0 0.948437 -0.0286038 0 0.955461 -0.0895386 0 0.955437 -0.0891584 0 0.955404 -0.0886494 0 0.954831 -0.0796577 0 0.953549 -0.0595585 0 0.95335 -0.0564399 0 0.952102 -0.0368696 0 0.951562 -0.0284068 0 0.975679 -0.0882639 0 0.975654 -0.0878837 0 0.975621 -0.0873748 0 0.975036 -0.0783838 0 0.973729 -0.0582863 0 0.973526 -0.0551679 0 0.972253 -0.0355992 0 0.971702 -0.0271371 0 0.978178 -0.0881063 0 0.978154 -0.0877261 0 0.97812 -0.0872172 0 0.977534 -0.0782263 0 0.976224 -0.058129 0 0.97602 -0.0550106 0 0.974744 -0.0354422 0 0.974192 -0.0269801 0 1.01954 -0.0851927 0 1.01951 -0.0848126 0 1.01948 -0.0843039 0 1.01907 -0.0785207 0 1.01814 -0.065271 0 1.01792 -0.0621538 0 1.01703 -0.0496284 0 1.01663 -0.043914 0 1.07859 -0.081033 0 1.07856 -0.080653 0 1.07852 -0.0801445 0 1.07833 -0.0775666 0 1.07785 -0.0711596 0 1.07762 -0.0680433 0 1.07721 -0.0625559 0 1.07698 -0.059587 0 1.17797 -0.0733334 0 1.17794 -0.0729536 0 1.1779 -0.0724453 0 1.17769 -0.0698685 0 1.17717 -0.0634642 0 1.17692 -0.0603493 0 1.17648 -0.0548642 0 1.17624 -0.0518966 0 1.27518 -0.0652299 0 1.27514 -0.0648503 0 1.2751 -0.0643422 0 1.27488 -0.0617665 0 1.27433 -0.0553651 0 1.27406 -0.0522516 0 1.27359 -0.0467689 0 1.27334 -0.0438026 0 1.36904 -0.0569419 0 1.36901 -0.0565625 0 1.36896 -0.0560546 0 1.36873 -0.05348 0 1.36815 -0.0470812 0 1.36787 -0.0439689 0 1.36737 -0.0384885 0 1.3671 -0.0355234 0 1.45842 -0.0486569 0 1.45838 -0.0482776 0 1.45833 -0.0477699 0 1.45809 -0.0451963 0 1.45748 -0.0388 0 1.45719 -0.0356889 0 1.45667 -0.0302105 0 1.45639 -0.0272466 0 1.54219 -0.0405535 0 1.54216 -0.0401744 0 1.54211 -0.0396668 0 1.54185 -0.0370942 0 1.54122 -0.0307003 0 1.54092 -0.0275904 0 1.54038 -0.0221141 0 1.54008 -0.0191513 0 1.61932 -0.0327949 0 1.61928 -0.0324159 0 1.61923 -0.0319086 0 1.61896 -0.029337 0 1.61831 -0.0229455 0 1.61799 -0.0198368 0 1.61743 -0.0143627 0 1.61712 -0.011401 0 0.2633 0.0778298 0 0.2633 0.0656703 0 0.2633 0.0535108 0 0.2633 0.0413513 0 0.2633 0.0291918 0 0.2633 0.0170323 0 0.2633 0.00487276 0 0.2633 -0.00728676 0 0.2633 -0.0194463 0 0.283441 0.0816713 0 0.283441 0.0687986 0 0.283441 0.0559259 0 0.283441 0.0430532 0 0.283441 0.0301805 0 0.283441 0.0173078 0 0.283441 0.00443514 0 0.283441 -0.00843755 0 0.283441 -0.0213102 0 0.286566 0.082279 0 0.286566 0.0693059 0 0.286566 0.0563327 0 0.286566 0.0433596 0 0.286566 0.0303865 0 0.286566 0.0174133 0 0.286566 0.00444019 0 0.286566 -0.00853294 0 0.286566 -0.0215061 0 0.306703 0.0862031 0 0.306703 0.0725811 0 0.306703 0.0589591 0 0.306703 0.0453372 0 0.306703 0.0317152 0 0.306703 0.0180932 0 0.306703 0.00447122 0 0.306703 -0.00915076 0 0.306703 -0.0227727 0 0.928297 0.0739497 0 0.928297 0.0624138 0 0.928297 0.0508778 0 0.928297 0.0393419 0 0.928297 0.027806 0 0.928297 0.01627 0 0.928297 0.00473412 0 0.928297 -0.00680181 0 0.928297 -0.0183377 0 0.948437 0.0714211 0 0.948437 0.0603072 0 0.948437 0.0491933 0 0.948437 0.0380794 0 0.948437 0.0269656 0 0.948437 0.0158517 0 0.948437 0.0047378 0 0.948437 -0.00637608 0 0.948437 -0.01749 0 0.951562 0.0709962 0 0.951562 0.0599514 0 0.951562 0.0489066 0 0.951562 0.0378618 0 0.951562 0.0268171 0 0.951562 0.0157723 0 0.951562 0.00472751 0 0.951562 -0.00631727 0 0.951562 -0.017362 0 0.971702 0.0682579 0 0.971702 0.0576584 0 0.971702 0.047059 0 0.971702 0.0364595 0 0.971702 0.0258601 0 0.971702 0.0152606 0 0.971702 0.00466121 0 0.971702 -0.00593823 0 0.971702 -0.0165377 0 
</DataArray>
</Points>
<Cells>
<DataArray Name="connectivity" format="ascii" type="Int64">
1 9 8 0 2 10 9 1 3 11 10 2 4 12 11 3 5 13 12 4 6 14 13 5 7 15 14 6 9 17 16 8 10 18 17 9 11 19 18 10 12 20 19 11 13 21 20 12 14 22 21 13 15 23 22 14 17 25 24 16 18 26 25 17 19 27 26 18 20 28 27 19 21 29 28 20 22 30 29 21 23 31 30 22 25 33 32 24 26 34 33 25 27 35 34 26 28 36 35 27 29 37 36 28 30 38 37 29 31 39 38 30 33 41 40 32 34 42 41 33 35 43 42 34 36 44 43 35 37 45 44 36 38 46 45 37 39 47 46 38 41 49 48 40 42 50 49 41 43 51 50 42 44 52 51 43 45 53 52 44 46 54 53 45 47 55 54 46 49 57 56 48 50 58 57 49 51 59 58 50 52 60 59 51 53 61 60 52 54 62 61 53 55 63 62 54 57 65 64 56 58 66 65 57 59 67 66 58 60 68 67 59 61 69 68 60 62 70 69 61 63 71 70 62 65 73 72 64 66 74 73 65 67 75 74 66 68 76 75 67 69 77 76 68 70 78 77 69 71 79 78 70 73 81 80 72 74 82 81 73 75 83 82 74 76 84 83 75 77 85 84 76 78 86 85 77 79 87 86 78 81 89 88 80 82 90 89 81 83 91 90 82 84 92 91 83 85 93 92 84 86 94 93 85 87 95 94 86 89 97 96 88 90 98 97 89 91 99 98 90 92 100 99 91 93 101 100 92 94 102 101 93 95 103 102 94 97 105 104 96 98 106 105 97 99 107 106 98 100 108 107 99 101 109 108 100 102 110 109 101 103 111 110 102 105 113 112 104 106 114 113 105 107 115 114 106 108 116 115 107 109 117 116 108 110 118 117 109 111 119 118 110 113 121 120 112 114 122 121 113 115 123 122 114 116 124 123 115 117 125 124 116 118 126 125 117 119 127 126 118 121 129 128 120 122 130 129 121 123 131 130 122 124 132 131 123 125 133 132 124 126 134 133 125 127 135 134 126 129 137 136 128 130 138 137 129 131 139 138 130 132 140 139 131 133 141 140 132 134 142 141 133 135 143 142 134 137 145 144 136 138 146 145 137 139 147 146 138 140 148 147 139 141 149 148 140 142 150 149 141 143 151 150 142 145 153 152 144 146 154 153 145 147 155 154 146 148 156 155 147 149 157 156 148 150 158 157 149 151 159 158 150 153 161 160 152 154 162 161 153 155 163 162 154 156 164 163 155 157 165 164 156 158 166 165 157 159 167 166 158 161 169 168 160 162 170 169 161 163 171 170 162 164 172 171 163 165 173 172 164 166 174 173 165 167 175 174 166 169 177 176 168 170 178 177 169 171 179 178 170 172 180 179 171 173 181 180 172 174 182 181 173 175 183 182 174 177 185 184 176 178 186 185 177 179 187 186 178 180 188 187 179 181 189 188 180 182 190 189 181 183 191 190 182 185 193 192 184 186 194 193 185 187 195 194 186 188 196 195 187 189 197 196 188 190 198 197 189 191 199 198 190 193 201 200 192 194 202 201 193 195 203 202 194 196 204 203 195 197 205 204 196 198 206 205 197 199 207 206 198 201 209 208 200 202 210 209 201 203 211 210 202 204 212 211 203 205 213 212 204 206 214 213 205 207 215 214 206 209 217 216 208 210 218 217 209 211 219 218 210 212 220 219 211 213 221 220 212 214 222 221 213 215 223 222 214 217 225 224 216 218 226 225 217 219 227 226 218 220 228 227 219 221 229 228 220 222 230 229 221 223 231 230 222 225 233 232 224 226 234 233 225 227 235 234 226 228 236 235 227 229 237 236 228 230 238 237 229 231 239 238 230 233 241 240 232 234 242 241 233 235 243 242 234 236 244 243 235 237 245 244 236 238 246 245 237 239 247 246 238 241 249 248 240 242 250 249 241 243 251 250 242 244 252 251 243 245 253 252 244 246 254 253 245 247 255 254 246 249 257 256 248 250 258 257 249 251 259 258 250 252 260 259 251 253 261 260 252 254 262 261 253 255 263 262 254 257 265 264 256 258 266 265 257 259 267 266 258 260 268 267 259 261 269 268 260 262 270 269 261 263 271 270 262 265 273 272 264 266 274 273 265 267 275 274 266 268 276 275 267 269 277 276 268 270 278 277 269 271 279 278 270 273 281 280 272 274 282 281 273 275 283 282 274 276 284 283 275 277 285 284 276 278 286 285 277 279 287 286 278 281 289 288 280 282 290 289 281 283 291 290 282 284 292 291 283 285 293 292 284 286 294 293 285 287 295 294 286 289 297 296 288 290 298 297 289 291 299 298 290 292 300 299 291 293 301 300 292 294 302 301 293 295 303 302 294 305 1 0 304 306 2 1 305 307 3 2 306 308 4 3 307 309 5 4 308 310 6 5 309 311 7 6 310 313 305 304 312 314 306 305 313 315 307 306 314 316 308 307 315 317 309 308 316 318 310 309 317 319 311 310 318 321 313 312 320 322 314 313 321 323 315 314 322 324 316 315 323 325 317 316 324 326 318 317 325 327 319 318 326 329 321 320 328 330 322 321 329 331 323 322 330 332 324 323 331 333 325 324 332 334 326 325 333 335 327 326 334 337 329 328 336 338 330 329 337 339 331 330 338 340 332 331 339 341 333 332 340 342 334 333 341 343 335 334 342 345 337 336 344 346 338 337 345 347 339 338 346 348 340 339 347 349 341 340 348 350 342 341 349 351 343 342 350 353 345 344 352 354 346 345 353 355 347 346 354 356 348 347 355 357 349 348 356 358 350 349 357 359 351 350 358 361 353 352 360 362 354 353 361 363 355 354 362 364 356 355 363 365 357 356 364 366 358 357 365 367 359 358 366 369 361 360 368 370 362 361 369 371 363 362 370 372 364 363 371 373 365 364 372 374 366 365 373 375 367 366 374 377 369 368 376 378 370 369 377 379 371 370 378 380 372 371 379 381 373 372 380 382 374 373 381 383 375 374 382 385 377 376 384 386 378 377 385 387 379 378 386 388 380 379 387 389 381 380 388 390 382 381 389 391 383 382 390 393 385 384 392 394 386 385 393 395 387 386 394 396 388 387 395 397 389 388 396 398 390 389 397 399 391 390 398 401 393 392 400 402 394 393 401 403 395 394 402 404 396 395 403 405 397 396 404 406 398 397 405 407 399 398 406 409 401 400 408 410 402 401 409 411 403 402 410 412 404 403 411 413 405 404 412 414 406 405 413 415 407 406 414 417 409 408 416 418 410 409 417 419 411 410 418 420 412 411 419 421 413 412 420 422 414 413 421 423 415 414 422 425 417 416 424 426 418 417 425 427 419 418 426 428 420 419 427 429 421 420 428 430 422 421 429 431 423 422 430 433 425 424 432 434 426 425 433 435 427 426 434 436 428 427 435 437 429 428 436 438 430 429 437 439 431 430 438 441 433 432 440 442 434 433 441 443 435 434 442 444 436 435 443 445 437 436 444 446 438 437 445 447 439 438 446 449 441 440 448 450 442 441 449 451 443 442 450 452 444 443 451 453 445 444 452 454 446 445 453 455 447 446 454 457 449 448 456 458 450 449 457 459 451 450 458 460 452 451 459 461 453 452 460 462 454 453 461 463 455 454 462 465 457 456 464 466 458 457 465 467 459 458 466 468 460 459 467 469 461 460 468 470 462 461 469 471 463 462 470 473 465 464 472 474 466 465 473 475 467 466 474 476 468 467 475 477 469 468 476 478 470 469 477 479 471 470 478 481 473 472 480 482 474 473 481 483 475 474 482 484 476 475 483 485 477 476 484 486 478 477 485 487 479 478 486 489 481 480 488 490 482 481 489 491 483 482 490 492 484 483 491 493 485 484 492 494 486 485 493 495 487 486 494 497 489 488 496 498 490 489 497 499 491 490 498 500 492 491 499 501 493 492 500 502 494 493 501 503 495 494 502 505 497 496 504 506 498 497 505 507 499 498 506 508 500 499 507 509 501 500 508 510 502 501 509 511 503 502 510 513 505 504 512 514 506 505 513 515 507 506 514 516 508 507 515 517 509 508 516 518 510 509 517 519 511 510 518 521 513 512 520 522 514 513 521 523 515 514 522 524 516 515 523 525 517 516 524 526 518 517 525 527 519 518 526 529 521 520 528 530 522 521 529 531 523 522 530 532 524 523 531 533 525 524 532 534 526 525 533 535 527 526 534 537 529 528 536 538 530 529 537 539 531 530 538 540 532 531 539 541 533 532 540 542 534 533 541 543 535 534 542 545 537 536 544 546 538 537 545 547 539 538 546 548 540 539 547 549 541 540 548 550 542 541 549 551 543 542 550 553 545 544 552 554 546 545 553 555 547 546 554 556 548 547 555 557 549 548 556 558 550 549 557 559 551 550 558 561 553 552 560 562 554 553 561 563 555 554 562 564 556 555 563 565 557 556 564 566 558 557 565 567 559 558 566 569 561 560 568 570 562 561 569 571 563 562 570 572 564 563 571 573 565 564 572 574 566 565 573 575 567 566 574 577 569 568 576 578 570 569 577 579 571 570 578 580 572 571 579 581 573 572 580 582 574 573 581 583 575 574 582 585 577 576 584 586 578 577 585 587 579 578 586 588 580 579 587 589 581 580 588 590 582 581 589 591 583 582 590 297 585 584 296 298 586 585 297 299 587 586 298 300 588 587 299 301 589 588 300 302 590 589 301 303 591 590 302 592 601 111 103 593 602 601 592 594 603 602 593 595 604 603 594 596 605 604 595 597 606 605 596 598 607 606 597 599 608 607 598 600 609 608 599 407 415 609 600 601 610 119 111 602 611 610 601 603 612 611 602 604 613 612 603 605 614 613 604 606 615 614 605 607 616 615 606 608 617 616 607 609 618 617 608 415 423 618 609 610 619 127 119 611 620 619 610 612 621 620 611 613 622 621 612 614 623 622 613 615 624 623 614 616 625 624 615 617 626 625 616 618 627 626 617 423 431 627 618 628 637 207 199 629 638 637 628 630 639 638 629 631 640 639 630 632 641 640 631 633 642 641 632 634 643 642 633 635 644 643 634 636 645 644 635 495 503 645 636 637 646 215 207 638 647 646 637 639 648 647 638 640 649 648 639 641 650 649 640 642 651 650 641 643 652 651 642 644 653 652 643 645 654 653 644 503 511 654 645 646 655 223 215 647 656 655 646 648 657 656 647 649 658 657 648 650 659 658 649 651 660 659 650 652 661 660 651 653 662 661 652 654 663 662 653 511 519 663 654 
</DataArray>
<DataArray Name="offsets" format="ascii" type="Int64">
4 8 12 16 20 24 28 32 36 40 44 48 52 56 60 64 68 72 76 80 84 88 92 96 100 104 108 112 116 120 124 128 132 136 140 144 148 152 156 160 164 168 172 176 180 184 188 192 196 200 204 208 212 216 220 224 228 232 236 240 244 248 252 256 260 264 268 272 276 280 284 288 292 296 300 304 308 312 316 320 324 328 332 336 340 344 348 352 356 360 364 368 372 376 380 384 388 392 396 400 404 408 412 416 420 424 428 432 436 440 444 448 452 456 460 464 468 472 476 480 484 488 492 496 500 504 508 512 516 520 524 528 532 536 540 544 548 552 556 560 564 568 572 576 580 584 588 592 596 600 604 608 612 616 620 624 628 632 636 640 644 648 652 656 660 664 668 672 676 680 684 688 692 696 700 704 708 712 716 720 724 728 732 736 740 744 748 752 756 760 764 768 772 776 780 784 788 792 796 800 804 808 812 816 820 824 828 832 836 840 844 848 852 856 860 864 868 872 876 880 884 888 892 896 900 904 908 912 916 920 924 928 932 936 940 944 948 952 956 960 964 968 972 976 980 984 988 992 996 1000 1004 1008 1012 1016 1020 1024 1028 1032 1036 1040 1044 1048 1052 1056 1060 1064 1068 1072 1076 1080 1084 1088 1092 1096 1100 1104 1108 1112 1116 1120 1124 1128 1132 1136 1140 1144 1148 1152 1156 1160 1164 1168 1172 1176 1180 1184 1188 1192 1196 1200 1204 1208 1212 1216 1220 1224 1228 1232 1236 1240 1244 1248 1252 1256 1260 1264 1268 1272 1276 1280 1284 1288 1292 1296 1300 1304 1308 1312 1316 1320 1324 1328 1332 1336 1340 1344 1348 1352 1356 1360 1364 1368 1372 1376 1380 1384 1388 1392 1396 1400 1404 1408 1412 1416 1420 1424 1428 1432 1436 1440 1444 1448 1452 1456 1460 1464 1468 1472 1476 1480 1484 1488 1492 1496 1500 1504 1508 1512 1516 1520 1524 1528 1532 1536 1540 1544 1548 1552 1556 1560 1564 1568 1572 1576 1580 1584 1588 1592 1596 1600 1604 1608 1612 1616 1620 1624 1628 1632 1636 1640 1644 1648 1652 1656 1660 1664 1668 1672 1676 1680 1684 1688 1692 1696 1700 1704 1708 1712 1716 1720 1724 1728 1732 1736 1740 1744 1748 1752 1756 1760 1764 1768 1772 1776 1780 1784 1788 1792 1796 1800 1804 1808 1812 1816 1820 1824 1828 1832 1836 1840 1844 1848 1852 1856 1860 1864 1868 1872 1876 1880 1884 1888 1892 1896 1900 1904 1908 1912 1916 1920 1924 1928 1932 1936 1940 1944 1948 1952 1956 1960 1964 1968 1972 1976 1980 1984 1988 1992 1996 2000 2004 2008 2012 2016 2020 2024 2028 2032 2036 2040 2044 2048 2052 2056 2060 2064 2068 2072 2076 2080 2084 2088 2092 2096 2100 2104 2108 2112 2116 2120 2124 2128 2132 2136 2140 2144 2148 2152 2156 2160 2164 2168 2172 2176 2180 2184 2188 2192 2196 2200 2204 2208 2212 2216 2220 2224 2228 2232 2236 2240 2244 2248 2252 2256 2260 2264 2268 2272 2276 2280 2284 2288 2292 2296 2300 2304 2308 2312 
</DataArray>
<DataArray Name="types" format="ascii" type="Int8">
9 9 9 9 9 9 9 9 9 9 9 9 9 9 9 9 9 9 9 9 9 9 9 9 9 9 9 9 9 9 9 9 9 9 9 9 9 9 9 9 9 9 9 9 9 9 9 9 9 9 9 9 9 9 9 9 9 9 9 9 9 9 9 9 9 9 9 9 9 9 9 9 9 9 9 9 9 9 9 9 9 9 9 9 9 9 9 9 9 9 9 9 9 9 9 9 9 9 9 9 9 9 9 9 9 9 9 9 9 9 9 9 9 9 9 9 9 9 9 9 9 9 9 9 9 9 9 9 9 9 9 9 9 9 9 9 9 9 9 9 9 9 9 9 9 9 9 9 9 9 9 9 9 9 9 9 9 9 9 9 9 9 9 9 9 9 9 9 9 9 9 9 9 9 9 9 9 9 9 9 9 9 9 9 9 9 9 9 9 9 9 9 9 9 9 9 9 9 9 9 9 9 9 9 9 9 9 9 9 9 9 9 9 9 9 9 9 9 9 9 9 9 9 9 9 9 9 9 9 9 9 9 9 9 9 9 9 9 9 9 9 9 9 9 9 9 9 9 9 9 9 9 9 9 9 9 9 9 9 9 9 9 9 9 9 9 9 9 9 9 9 9 9 9 9 9 9 9 9 9 9 9 9 9 9 9 9 9 9 9 9 9 9 9 9 9 9 9 9 9 9 9 9 9 9 9 9 9 9 9 9 9 9 9 9 9 9 9 9 9 9 9 9 9 9 9 9 9 9 9 9 9 9 9 9 9 9 9 9 9 9 9 9 9 9 9 9 9 9 9 9 9 9 9 9 9 9 9 9 9 9 9 9 9 9 9 9 9 9 9 9 9 9 9 9 9 9 9 9 9 9 9 9 9 9 9 9 9 9 9 9 9 9 9 9 9 9 9 9 9 9 9 9 9 9 9 9 9 9 9 9 9 9 9 9 9 9 9 9 9 9 9 9 9 9 9 9 9 9 9 9 9 9 9 9 9 9 9 9 9 9 9 9 9 9 9 9 9 9 9 9 9 9 9 9 9 9 9 9 9 9 9 9 9 9 9 9 9 9 9 9 9 9 9 9 9 9 9 9 9 9 9 9 9 9 9 9 9 9 9 9 9 9 9 9 9 9 9 9 9 9 9 9 9 9 9 9 9 9 9 9 9 9 9 9 9 9 9 9 9 9 9 9 9 9 9 9 9 9 9 9 9 9 9 9 9 9 9 9 9 9 9 9 9 9 9 9 9 9 9 9 9 9 9 9 9 9 9 9 9 9 9 9 9 9 9 9 9 9 9 9 9 9 9 9 9 9 9 
</DataArray>
</Cells>
</Piece>
</UnstructuredGrid>
</VTKFile>
