<?xml version="1.0"?>
<VTKFile byte_order="LittleEndian" type="UnstructuredGrid" version="0.1">
<UnstructuredGrid>
<Piece NumberOfCells="900" NumberOfPoints="2821">
<PointData>
<DataArray Name="Warping_X" format="ascii" type="Float64">
-0.534716 -0.520301 -0.503529 -0.484068 -0.463545 -0.444687 -0.424744 -0.406129 -0.386504 -0.368239 -0.349011 -0.33106 -0.312204 -0.294527 -0.276015 -0.258569 -0.240367 -0.22311 -0.205186 -0.188079 -0.170399 -0.153404 -0.135936 -0.119018 -0.10173 -0.0848554 -0.0677145 -0.0508503 -0.0338257 -0.0169396 1.5575e-08 0.0169397 0.0338258 0.0508504 0.0677146 0.0848554 0.10173 0.119019 0.135936 0.153404 0.170399 0.188079 0.205186 0.22311 0.240367 0.258569 0.276015 0.294527 0.312204 0.33106 0.349011 0.368239 0.386504 0.406129 0.424744 0.444687 0.463545 0.484068 0.503529 0.520301 0.534716 0.544342 0.541502 0.529917 0.519542 0.506087 0.492576 0.476693 0.460806 0.443275 0.425727 0.40691 0.388083 0.368291 0.348494 0.327954 0.307412 0.286301 0.265189 0.243644 0.2221 0.200231 0.178362 0.156255 0.134149 0.111878 0.0896061 0.0672297 0.0448537 0.0224268 -1.14189e-08 -0.0224268 -0.0448537 -0.0672298 -0.0896061 -0.111878 -0.134149 -0.156255 -0.178362 -0.200231 -0.2221 -0.243644 -0.265189 -0.286301 -0.307412 -0.327954 -0.348494 -0.368291 -0.388083 -0.40691 -0.425727 -0.443275 -0.460806 -0.476693 -0.492576 -0.506087 -0.519542 -0.529917 -0.541502 -0.544342 -0.534716 -0.520301 -0.503529 -0.484068 -0.463545 -0.444687 -0.424744 -0.406129 -0.386504 -0.368239 -0.349011 -0.33106 -0.312204 -0.294527 -0.276015 -0.258569 -0.240367 -0.22311 -0.205186 -0.188079 -0.170399 -0.153404 -0.135936 -0.119019 -0.10173 -0.0848554 -0.0677146 -0.0508504 -0.0338258 -0.0169397 -1.5575e-08 0.0169396 0.0338257 0.0508503 0.0677145 0.0848554 0.10173 0.119018 0.135936 0.153404 0.170399 0.188079 0.205186 0.22311 0.240367 0.258569 0.276015 0.294527 0.312204 0.33106 0.349011 0.368239 0.386504 0.406129 0.424744 0.444687 0.463545 0.484068 0.503529 0.520301 0.534716 0.544342 0.541502 0.529917 0.519542 0.506087 0.492576 0.476693 0.460806 0.443275 0.425727 0.40691 0.388083 0.368291 0.348494 0.327954 0.307412 0.286301 0.265189 0.243644 0.2221 0.200231 0.178362 0.156255 0.134149 0.111878 0.0896061 0.0672298 0.0448537 0.0224268 1.14189e-08 -0.0224268 -0.0448537 -0.0672297 -0.0896061 -0.111878 -0.134149 -0.156255 -0.178362 -0.200231 -0.2221 -0.243644 -0.265189 -0.286301 -0.307412 -0.327954 -0.348494 -0.368291 -0.388083 -0.40691 -0.425727 -0.443275 -0.460806 -0.476693 -0.492576 -0.506087 -0.519542 -0.529917 -0.541502 -0.544342 -1.89589e-08 -1.47417e-08 -1.36049e-08 -1.24635e-08 -1.20311e-08 -1.15962e-08 -1.10307e-08 -1.04597e-08 -9.94686e-09 -9.42782e-09 -8.91989e-09 -8.40573e-09 -7.91124e-09 -7.41088e-09 -6.92613e-09 -6.43603e-09 -5.96045e-09 -5.48012e-09 -5.01241e-09 -4.54061e-09 -4.07958e-09 -3.61515e-09 -3.15949e-09 -2.70114e-09 -2.24947e-09 -1.79586e-09 -1.34674e-09 -8.96449e-10 -4.48419e-10 1.7692e-15 4.48422e-10 8.96452e-10 1.34674e-09 1.79586e-09 2.24947e-09 2.70115e-09 3.15949e-09 3.61516e-09 4.07959e-09 4.54062e-09 5.01241e-09 5.48012e-09 5.96045e-09 6.43604e-09 6.92613e-09 7.41088e-09 7.91124e-09 8.40573e-09 8.91989e-09 9.42782e-09 9.94686e-09 1.04597e-08 1.10306e-08 1.15962e-08 1.20311e-08 1.24635e-08 1.36049e-08 1.47417e-08 1.89589e-08 -2.98514e-10 -5.9701e-10 -8.95301e-10 -1.19353e-09 -1.49135e-09 -1.78906e-09 -2.08615e-09 -2.38309e-09 -2.67921e-09 -2.97512e-09 -3.27001e-09 -3.56463e-09 -3.85803e-09 -4.15112e-09 -4.44279e-09 -4.73409e-09 -5.02382e-09 -5.31313e-09 -5.60074e-09 -5.8879e-09 -6.17321e-09 -6.45807e-09 -6.74148e-09 -7.02445e-09 -7.30363e-09 -7.58244e-09 -7.87219e-09 -8.16177e-09 -1.09202e-08 -0.0103763 -0.0207529 -0.031094 -0.0414355 -0.0517047 -0.0619731 -0.0721289 -0.0822811 -0.0922753 -0.10226 -0.112035 -0.12179 -0.131273 -0.140723 -0.149827 -0.158875 -0.167492 -0.176023 -0.184021 -0.191893 -0.199116 -0.206162 -0.21244 -0.218485 -0.223623 -0.228475 -0.232419 -0.236041 -0.238366 -0.130544 -0.120402 -0.110273 -0.100177 -0.0900929 -0.0800361 -0.0699895 -0.0599645 -0.0499475 -0.0399462 -0.0299503 -0.019964 -0.0099804 -0.0746915 -0.0693194 -0.0637875 -0.0582383 -0.0525651 -0.0468818 -0.0411051 -0.035323 -0.0294742 -0.0236228 -0.0177285 -0.0118331 -0.00591667 -0.0527607 -0.0586503 -0.0645431 -0.0704488 -0.0763577 -0.0780224 -0.0867458 -0.0954773 -0.104233 -0.112998 -0.0934772 -0.112334 -0.0657641 -0.072867 -0.079816 -0.0655451 -0.0948894 -0.087539 -0.0801941 -0.0789992 -0.095896 -0.026583 -0.0295479 -0.0325137 -0.0354849 -0.0384571 -0.036868 -0.0441857 -0.0514208 -0.0397507 -0.0575157 -0.0530682 -0.0486226 -0.0442775 -0.0617609 -0.00740033 -0.0148005 -0.0221746 -0.0133157 -0.0192617 -0.0177735 -0.0162857 -0.00888676 -0.0266294 -0.0058513 -0.0117039 -0.0175573 -0.0234145 -0.0292733 -0.0351384 -0.0410058 -0.0262508 -0.0290813 -0.031849 -0.0346069 -0.0372841 -0.0218059 -0.0145358 -0.00726701 -0.0131214 -0.0259482 -0.0172967 -0.00864717 -0.0159188 -0.0186342 -0.0509361 -0.0436458 -0.0363592 -0.0393963 -0.0606234 -0.0519436 -0.0432694 -0.0478017 -0.055965 -0.00294921 -0.00589898 -0.00884902 -0.0118007 -0.0147529 -0.0177078 -0.0206635 -0.0147232 -0.0176439 -0.0205309 -0.0132305 -0.0088197 -0.00440941 -0.0073598 -0.0102627 -0.030897 -0.026477 -0.0220583 -0.0220936 -0.03081 -0.00295585 -0.00591149 -0.00885648 -0.0044329 -0.0029551 -0.00147742 -0.00147761 -0.00442725 -0.00443535 -0.00887042 -0.0132896 -0.00739031 -0.0103509 -0.191079 -0.176094 -0.16116 -0.146308 -0.131501 -0.116761 -0.102056 -0.0874035 -0.0727777 -0.0581895 -0.0436189 -0.0290709 -0.0145317 -0.112838 -0.108805 -0.104404 -0.0999205 -0.0951304 -0.0902799 -0.0851789 -0.112503 -0.125131 -0.137783 -0.15049 -0.163225 -0.130765 -0.136298 -0.141371 -0.122523 -0.177897 -0.163983 -0.150106 -0.157294 -0.170117 -0.106626 -0.113026 -0.119114 -0.101635 -0.12817 -0.135885 -0.143228 -0.124434 -0.147356 -0.0562456 -0.0542457 -0.0520625 -0.049836 -0.0474561 -0.0450443 -0.0425065 -0.0623211 -0.074832 -0.0873583 -0.0678401 -0.0814668 -0.0951134 -0.0844768 -0.0781814 -0.0563253 -0.0676266 -0.0789392 -0.0712527 -0.0638119 -0.0124486 -0.0249023 -0.0373614 -0.0260137 -0.0271031 -0.0281011 -0.0135483 -0.0406647 -0.0212428 -0.02251 -0.0237143 -0.011253 -0.033771 -0.134781 -0.133448 -0.131404 -0.129183 -0.126479 -0.123615 -0.120256 -0.145534 -0.161942 -0.178443 -0.195017 -0.211701 -0.164729 -0.167293 -0.168958 -0.150258 -0.21859 -0.201467 -0.184242 -0.198377 -0.203463 -0.150708 -0.154937 -0.15854 -0.139232 -0.202448 -0.186541 -0.170684 -0.181418 -0.1909 -0.0160684 -0.0321429 -0.0482354 -0.0643466 -0.0804939 -0.0966726 -0.112906 -0.0654511 -0.0664691 -0.0671354 -0.0497985 -0.0332029 -0.016589 -0.0326944 -0.033536 -0.116568 -0.0998626 -0.0831034 -0.0983329 -0.100862 -0.0599217 -0.0615853 -0.0630057 -0.0461606 -0.030765 -0.0153777 -0.0299351 -0.0314737 -0.0900114 -0.0925165 -0.0946543 -0.0770266 -0.108032 -0.296766 -0.286172 -0.275583 -0.265045 -0.254512 -0.24403 -0.233556 -0.223132 -0.212717 -0.202352 -0.191998 -0.181692 -0.171399 -0.16115 -0.150916 -0.207982 -0.192821 -0.177265 -0.161708 -0.14585 -0.129996 -0.113918 -0.0978454 -0.0816148 -0.0653898 -0.0490637 -0.0327415 -0.01637 -0.136001 -0.142025 -0.14805 -0.154095 -0.16014 -0.166206 -0.172273 -0.172936 -0.191785 -0.210309 -0.228839 -0.246941 -0.184237 -0.176717 -0.169199 -0.159368 -0.227412 -0.210789 -0.193751 -0.219795 -0.201786 -0.214491 -0.206911 -0.199334 -0.186557 -0.266571 -0.246972 -0.22694 -0.256061 -0.237887 -0.0193898 -0.0387809 -0.05812 -0.0774629 -0.0966989 -0.115941 -0.135014 -0.0744363 -0.0714182 -0.0683998 -0.037267 -0.0357573 -0.0342474 -0.0178779 -0.0535856 -0.111403 -0.10688 -0.102356 -0.0891457 -0.124449 -0.0865609 -0.0835249 -0.0804895 -0.0433309 -0.0418126 -0.0402946 -0.020906 -0.0626678 -0.129582 -0.12503 -0.120478 -0.104276 -0.145616 -0.0882078 -0.0941505 -0.100096 -0.106059 -0.112024 -0.118007 -0.123992 -0.118965 -0.131867 -0.144509 -0.157138 -0.169428 -0.124439 -0.117035 -0.109637 -0.105596 -0.148264 -0.139423 -0.130591 -0.128238 -0.150303 -0.15422 -0.146758 -0.1393 -0.132383 -0.188654 -0.174937 -0.160851 -0.183861 -0.16602 -0.0444147 -0.0474007 -0.0503873 -0.0533812 -0.0563756 -0.0593776 -0.0623797 -0.0666179 -0.079857 -0.0929574 -0.0591511 -0.0709023 -0.0825272 -0.0664322 -0.0753738 -0.0933353 -0.088838 -0.0843413 -0.0741056 -0.103421 -0.0133658 -0.0267325 -0.0400558 -0.025234 -0.0237391 -0.0222443 -0.0118693 -0.0355693 -0.0312355 -0.0297333 -0.028231 -0.014866 -0.0445538 -0.383556 -0.380036 -0.37417 -0.367719 -0.359507 -0.350859 -0.340624 -0.330101 -0.318312 -0.306345 -0.293357 -0.280262 -0.266354 -0.252386 -0.237774 -0.34605 -0.362153 -0.378321 -0.394645 -0.41102 -0.427544 -0.444108 -0.407679 -0.420537 -0.431368 -0.441836 -0.449949 -0.457163 -0.460802 -0.42297 -0.404343 -0.385923 -0.395067 -0.385383 -0.373892 -0.40284 -0.368006 -0.437217 -0.41802 -0.398716 -0.411517 -0.421691 -0.499992 -0.480347 -0.46099 -0.468394 -0.456304 -0.441961 -0.474293 -0.438296 -0.518992 -0.498439 -0.477319 -0.489536 -0.500639 -0.282591 -0.30013 -0.31695 -0.333749 -0.349625 -0.365453 -0.380095 -0.320277 -0.306894 -0.293534 -0.291556 -0.276178 -0.260113 -0.28812 -0.264249 -0.349019 -0.335743 -0.321358 -0.350538 -0.320985 -0.374406 -0.360816 -0.347238 -0.336332 -0.324237 -0.31215 -0.305205 -0.34253 -0.41152 -0.395456 -0.378146 -0.410532 -0.380395 -0.221305 -0.236559 -0.251879 -0.267325 -0.282842 -0.298497 -0.314225 -0.245379 -0.262392 -0.279553 -0.296845 -0.314307 -0.331923 -0.349729 -0.301996 -0.306712 -0.309676 -0.288686 -0.271095 -0.253378 -0.266931 -0.273744 -0.361237 -0.342987 -0.324605 -0.337706 -0.346249 -0.27562 -0.283635 -0.290425 -0.267146 -0.25083 -0.234582 -0.243824 -0.256775 -0.333803 -0.31696 -0.3002 -0.307874 -0.324646 -0.193523 -0.205304 -0.216541 -0.227694 -0.238169 -0.248512 -0.258017 -0.214684 -0.201752 -0.188852 -0.191925 -0.182011 -0.171608 -0.193628 -0.170416 -0.234235 -0.22006 -0.205931 -0.210972 -0.228405 -0.267019 -0.253862 -0.240736 -0.241349 -0.228761 -0.215577 -0.240541 -0.217001 -0.28798 -0.277269 -0.265627 -0.291749 -0.262836 0.238366 0.236041 0.232419 0.228475 0.223623 0.218485 0.21244 0.206162 0.199116 0.191893 0.184021 0.176023 0.167492 0.158875 0.149827 0.140723 0.131273 0.12179 0.112035 0.10226 0.0922753 0.0822811 0.0721289 0.0619731 0.0517046 0.0414355 0.031094 0.0207528 0.0103763 0.147356 0.135885 0.124434 0.113026 0.101635 0.0902799 0.0789392 0.0676266 0.0563253 0.0450443 0.033771 0.02251 0.011253 0.0951304 0.0999205 0.104404 0.108805 0.112838 0.116761 0.120256 0.123615 0.126479 0.129183 0.131404 0.133448 0.134781 0.131501 0.146308 0.16116 0.176094 0.191079 0.112503 0.125131 0.137783 0.15049 0.163225 0.119114 0.143228 0.141371 0.136298 0.130765 0.122523 0.170117 0.163983 0.157294 0.150106 0.177897 0.145534 0.161942 0.178443 0.195017 0.211701 0.15854 0.154937 0.150708 0.139232 0.202448 0.186541 0.170684 0.1909 0.181418 0.168958 0.167293 0.164729 0.150258 0.21859 0.201467 0.184242 0.203463 0.198377 0.0145317 0.0290709 0.0436189 0.0581895 0.0727777 0.0874035 0.102056 0.0562456 0.0542457 0.0520625 0.049836 0.0474561 0.0406647 0.0271031 0.0135483 0.0281011 0.0237143 0.0249023 0.0260137 0.0373614 0.0124486 0.0951134 0.0814668 0.0678401 0.0844768 0.0712527 0.074832 0.0781814 0.0873583 0.0623211 0.0160684 0.0321429 0.0482354 0.0643466 0.0804939 0.0966726 0.112906 0.0630056 0.0615853 0.0599217 0.0461606 0.030765 0.0153777 0.0314737 0.0299351 0.108031 0.0925165 0.0770266 0.0946543 0.0900114 0.0671354 0.0664691 0.0654511 0.033536 0.0332029 0.0326944 0.016589 0.0497985 0.100862 0.0998626 0.0983329 0.0831034 0.116568 0.0763577 0.0704488 0.0645431 0.0586503 0.0527607 0.0468818 0.0410058 0.0351384 0.0292733 0.0234145 0.0175573 0.0117039 0.00585129 0.0525651 0.0582383 0.0637875 0.0693194 0.0746915 0.0800361 0.0851789 0.0780224 0.0867458 0.0954773 0.104233 0.112998 0.079816 0.072867 0.0657641 0.0655451 0.095896 0.087539 0.0789992 0.0801941 0.0948894 0.106626 0.100177 0.0934772 0.0900929 0.12817 0.120402 0.112334 0.110273 0.130544 0.0262508 0.0290813 0.031849 0.0346069 0.0372841 0.0399462 0.0425065 0.0432694 0.0519436 0.0606234 0.0478017 0.0436458 0.0393963 0.0363592 0.0509361 0.0638119 0.0599645 0.055965 0.0499475 0.0699895 0.00864717 0.0172967 0.0259482 0.0159188 0.0145358 0.0131214 0.00726701 0.0218059 0.0099804 0.019964 0.0299503 0.0186342 0.0212428 0.00591666 0.0118331 0.0177285 0.0236228 0.0294742 0.035323 0.0411051 0.026583 0.0295479 0.0325137 0.0354849 0.0384571 0.0221746 0.0148005 0.00740032 0.0133157 0.0192617 0.0177735 0.0162857 0.0266294 0.00888675 0.0514208 0.0441857 0.036868 0.0397507 0.0575157 0.0530682 0.0486226 0.0617609 0.0442775 0.00295585 0.00591148 0.00885648 0.0118007 0.0147232 0.0176439 0.0205309 0.0147529 0.0177078 0.0206635 0.0132896 0.00887042 0.00443535 0.00739031 0.0103509 0.03081 0.026477 0.0220936 0.0220583 0.030897 0.00294921 0.00589898 0.00884902 0.00442725 0.0029551 0.00147761 0.00147742 0.0044329 0.0102627 0.0088197 0.0073598 0.00440941 0.0132305 0.336331 0.324237 0.31215 0.30013 0.28812 0.276178 0.264249 0.252386 0.240541 0.228761 0.217001 0.205304 0.193628 0.182011 0.170416 0.266354 0.280262 0.293357 0.306345 0.318312 0.330101 0.340624 0.350859 0.359507 0.367719 0.37417 0.380036 0.383556 0.34605 0.362153 0.378321 0.394645 0.41102 0.427544 0.444108 0.380095 0.365453 0.349625 0.333749 0.31695 0.350538 0.335743 0.320985 0.349019 0.320277 0.306894 0.293534 0.321358 0.291556 0.410531 0.395456 0.380395 0.41152 0.34253 0.360816 0.378146 0.374406 0.347238 0.460802 0.457163 0.449949 0.441836 0.431368 0.420537 0.407679 0.42297 0.404343 0.385923 0.437217 0.41802 0.398716 0.421691 0.411517 0.373892 0.385383 0.395067 0.40284 0.368006 0.499992 0.480347 0.46099 0.489536 0.498439 0.500639 0.518992 0.477319 0.441961 0.456304 0.468394 0.474293 0.438296 0.221305 0.236559 0.251879 0.267325 0.282842 0.298497 0.314225 0.258017 0.248512 0.238169 0.227694 0.216541 0.234235 0.22006 0.205931 0.228405 0.214684 0.201752 0.188852 0.210972 0.191925 0.291749 0.277269 0.262836 0.28798 0.267019 0.253862 0.240736 0.265627 0.241349 0.245379 0.262392 0.279553 0.296845 0.314307 0.331923 0.349729 0.290425 0.283635 0.27562 0.267146 0.25083 0.234582 0.256775 0.243824 0.333803 0.31696 0.3002 0.324646 0.307874 0.309676 0.306712 0.301996 0.273744 0.271095 0.266931 0.253378 0.288686 0.361237 0.342987 0.324605 0.346249 0.337706 0.172273 0.166206 0.16014 0.154095 0.14805 0.142025 0.136001 0.129996 0.123992 0.118007 0.112024 0.106059 0.100096 0.0941504 0.0882078 0.14585 0.161708 0.177265 0.192821 0.207982 0.223132 0.237774 0.172936 0.191785 0.210309 0.228839 0.246941 0.265045 0.282591 0.237887 0.246972 0.256061 0.22694 0.206911 0.186556 0.199334 0.214491 0.305205 0.286172 0.266571 0.275583 0.296766 0.201786 0.210789 0.219795 0.193751 0.176717 0.159368 0.169199 0.184237 0.233556 0.24403 0.254512 0.227412 0.260113 0.130591 0.139423 0.148264 0.157138 0.16602 0.174937 0.183861 0.144509 0.131867 0.118965 0.124439 0.117035 0.109637 0.128238 0.105596 0.15422 0.146758 0.1393 0.160851 0.132383 0.193523 0.181692 0.169428 0.171608 0.16115 0.150303 0.150916 0.171399 0.212717 0.202352 0.191998 0.215577 0.188654 0.01637 0.0327415 0.0490637 0.0653898 0.0816148 0.0978454 0.113918 0.0193898 0.0387809 0.05812 0.0774629 0.0966989 0.115941 0.135014 0.0804895 0.0835249 0.0865609 0.0626677 0.0418126 0.020906 0.0402946 0.0433309 0.145616 0.12503 0.104276 0.120478 0.129582 0.0683998 0.0714181 0.0744363 0.0342474 0.0357573 0.037267 0.0178779 0.0535856 0.124449 0.10688 0.0891456 0.102356 0.111403 0.0444147 0.0474007 0.0503873 0.0533812 0.0563755 0.0593775 0.0623797 0.0400557 0.0267325 0.0133658 0.025234 0.0237391 0.0222443 0.0355693 0.0118693 0.0312354 0.0297332 0.028231 0.0445538 0.014866 0.0929574 0.079857 0.0666179 0.0753738 0.0709023 0.0664322 0.0825271 0.0591511 0.103421 0.0888379 0.0741056 0.0843413 0.0933352 1.09202e-08 8.16178e-09 7.8722e-09 7.58245e-09 7.30363e-09 7.02446e-09 6.74148e-09 6.45808e-09 6.17322e-09 5.88791e-09 5.60074e-09 5.31313e-09 5.02382e-09 4.7341e-09 4.44279e-09 4.15112e-09 3.85804e-09 3.56464e-09 3.27001e-09 2.97513e-09 2.67921e-09 2.3831e-09 2.08616e-09 1.78906e-09 1.49135e-09 1.19353e-09 8.95305e-10 5.97013e-10 2.98518e-10 0.0118693 0.0237391 0.0355693 0.0474007 0.0591511 0.0709023 0.0825272 0.0941505 0.105596 0.117035 0.128238 0.139423 0.150303 0.16115 0.171608 0.182011 0.191925 0.201752 0.210972 0.22006 0.228405 0.236559 0.243824 0.25083 0.256775 0.262392 0.266931 0.271095 0.273744 0.171399 0.181692 0.191998 0.202352 0.212717 0.223132 0.233556 0.24403 0.254512 0.265045 0.275583 0.286172 0.296766 0.0753738 0.079857 0.0843413 0.088838 0.0933353 0.0978454 0.102356 0.10688 0.111403 0.115941 0.120478 0.12503 0.129582 0.0816148 0.0653898 0.0490637 0.0327415 0.01637 0.0666179 0.0533812 0.0400557 0.0267325 0.0133658 0.0503873 0.025234 0.0623797 0.0593775 0.0563755 0.0741056 0.0312355 0.0297332 0.028231 0.0445538 0.014866 0.0966989 0.0774629 0.05812 0.0387809 0.0193898 0.0744363 0.0714182 0.0683998 0.0891457 0.0178779 0.0357573 0.0535856 0.037267 0.0342474 0.0865609 0.0835249 0.0804895 0.104276 0.020906 0.0418126 0.0626677 0.0433309 0.0402946 0.207982 0.192821 0.177265 0.161708 0.14585 0.129996 0.113918 0.15422 0.146758 0.1393 0.131867 0.124439 0.160851 0.174937 0.188654 0.183861 0.144509 0.157138 0.169428 0.16602 0.148264 0.103421 0.118007 0.132383 0.123992 0.100096 0.106059 0.112024 0.0929574 0.118965 0.246941 0.228839 0.210309 0.191785 0.172936 0.154095 0.135014 0.184237 0.176717 0.169199 0.193751 0.210789 0.227412 0.219795 0.201786 0.124449 0.142025 0.159368 0.14805 0.136001 0.214491 0.206911 0.199334 0.22694 0.246972 0.266571 0.256061 0.237887 0.145616 0.166206 0.186556 0.172273 0.16014 0.251879 0.267325 0.282842 0.298497 0.314225 0.330101 0.34605 0.362153 0.378321 0.394645 0.41102 0.427544 0.444108 0.318312 0.306345 0.293357 0.280262 0.266354 0.252386 0.237774 0.267019 0.253862 0.240736 0.227694 0.214684 0.265627 0.277269 0.28798 0.291749 0.234235 0.248512 0.262836 0.238169 0.258017 0.215577 0.228761 0.241349 0.240541 0.193628 0.205304 0.217001 0.193523 0.216541 0.380095 0.365453 0.349625 0.333749 0.31695 0.30013 0.282591 0.320277 0.306894 0.293534 0.321358 0.335743 0.349019 0.350538 0.320985 0.260113 0.276178 0.291556 0.28812 0.264249 0.374406 0.360816 0.347238 0.378146 0.395456 0.41152 0.410531 0.380395 0.336331 0.324237 0.31215 0.34253 0.305205 0.383556 0.380036 0.37417 0.367719 0.359507 0.350859 0.340624 0.349729 0.331923 0.314307 0.296845 0.279553 0.337706 0.342987 0.346249 0.361237 0.301996 0.306712 0.309676 0.324605 0.288686 0.307874 0.31696 0.324646 0.333803 0.267146 0.283635 0.3002 0.27562 0.290425 0.499992 0.480347 0.46099 0.441836 0.42297 0.404343 0.385923 0.449949 0.457163 0.460801 0.489536 0.498439 0.500639 0.518992 0.477319 0.398716 0.41802 0.437217 0.411517 0.421691 0.407679 0.420537 0.431368 0.438296 0.456304 0.474293 0.441961 0.468394 0.368006 0.385383 0.40284 0.373892 0.395067 0.00998039 0.0199639 0.0299503 0.0399462 0.0499475 0.0599645 0.0699895 0.0800361 0.0900929 0.100177 0.110273 0.120402 0.130544 0.140723 0.150916 0.0746915 0.0693194 0.0637875 0.0582383 0.0525651 0.0468818 0.0411051 0.035323 0.0294742 0.0236228 0.0177285 0.0118331 0.00591667 0.0410058 0.0351384 0.0292733 0.0234145 0.0175573 0.0117039 0.00585129 0.0262508 0.0290813 0.031849 0.0346069 0.0372841 0.0363592 0.0436458 0.0509361 0.0393963 0.0432694 0.0519436 0.0606234 0.0478017 0.055965 0.007267 0.0145358 0.0218059 0.0131214 0.00864716 0.0172967 0.0259482 0.0159188 0.0186342 0.0206635 0.0177078 0.0147529 0.0118007 0.00884901 0.00589897 0.00294921 0.0147232 0.0176439 0.0205309 0.0220583 0.026477 0.030897 0.0220936 0.03081 0.00440941 0.0088197 0.0132305 0.0073598 0.0102627 0.00295585 0.00591148 0.00885648 0.00443535 0.00887042 0.0132896 0.0103509 0.00739031 0.00147741 0.00295509 0.0044329 0.00147761 0.00442725 0.0882078 0.0822811 0.0763577 0.0704488 0.0645431 0.0586503 0.0527607 0.0789992 0.087539 0.095896 0.104233 0.112334 0.0948894 0.10226 0.109637 0.0922753 0.112998 0.12179 0.130591 0.112035 0.131273 0.0655451 0.072867 0.0801941 0.0657641 0.0780224 0.0867458 0.0954773 0.079816 0.0934772 0.0444147 0.0414355 0.0384571 0.0354849 0.0325137 0.0295479 0.026583 0.0442775 0.0530682 0.0617609 0.0575157 0.0619731 0.0664322 0.0517047 0.0721289 0.0397507 0.0441857 0.0486226 0.036868 0.0514208 0.00888676 0.0177735 0.0266294 0.0192617 0.0207528 0.0222443 0.0103763 0.031094 0.0133157 0.0148005 0.0162857 0.00740033 0.0221746 0.134781 0.133448 0.131404 0.129183 0.126479 0.123615 0.120256 0.116761 0.112838 0.108805 0.104404 0.0999205 0.0951304 0.0902799 0.0851789 0.102056 0.0874035 0.0727777 0.0581894 0.0436189 0.0290708 0.0145317 0.112906 0.0966726 0.0804939 0.0643466 0.0482354 0.0321428 0.0160683 0.0654511 0.0664691 0.0671353 0.0831033 0.0998626 0.116568 0.0983329 0.100862 0.0165889 0.0332028 0.0497985 0.0326944 0.033536 0.0599217 0.0615853 0.0630056 0.0900114 0.0925165 0.0946543 0.108031 0.0770266 0.0153776 0.030765 0.0461606 0.0299351 0.0314737 0.0425065 0.0450443 0.0474561 0.049836 0.0520625 0.0542457 0.0562455 0.0623211 0.0748319 0.0873583 0.0712527 0.0676266 0.0638119 0.0563253 0.0789392 0.0844768 0.0814668 0.0781813 0.0678401 0.0951134 0.0124485 0.0249023 0.0373613 0.0237143 0.02251 0.0212427 0.011253 0.033771 0.0135483 0.0271031 0.0406647 0.0260136 0.028101 0.221305 0.206162 0.191079 0.176094 0.16116 0.146308 0.131501 0.245379 0.228475 0.211701 0.195017 0.178443 0.161942 0.145534 0.198377 0.201467 0.203463 0.21859 0.236041 0.253378 0.232419 0.238366 0.150258 0.167293 0.184242 0.164729 0.168958 0.181418 0.186541 0.1909 0.202448 0.218485 0.234582 0.21244 0.223623 0.150708 0.154937 0.15854 0.170684 0.139232 0.12817 0.135885 0.143228 0.15049 0.157294 0.163983 0.170117 0.163225 0.176023 0.188852 0.147356 0.158875 0.170416 0.149827 0.167492 0.177897 0.191893 0.20593 0.184021 0.199116 0.112503 0.125131 0.137783 0.119114 0.113026 0.106626 0.101635 0.124434 0.141371 0.136298 0.130765 0.122523 0.150106 -0.273744 -0.271095 -0.266931 -0.262392 -0.256775 -0.25083 -0.243824 -0.236559 -0.228405 -0.22006 -0.210972 -0.201751 -0.191925 -0.182011 -0.171608 -0.16115 -0.150303 -0.139423 -0.128238 -0.117035 -0.105596 -0.0941504 -0.0825271 -0.0709022 -0.0591511 -0.0474007 -0.0355693 -0.0237391 -0.0118693 -0.193628 -0.205304 -0.217001 -0.228761 -0.240541 -0.252386 -0.264249 -0.276178 -0.28812 -0.30013 -0.31215 -0.324236 -0.336331 -0.267146 -0.283635 -0.3002 -0.31696 -0.333803 -0.350859 -0.368006 -0.385383 -0.40284 -0.420537 -0.438296 -0.456304 -0.474293 -0.359507 -0.367719 -0.37417 -0.380036 -0.383556 -0.349729 -0.331923 -0.314307 -0.296845 -0.279553 -0.324646 -0.290425 -0.346249 -0.342987 -0.337706 -0.361237 -0.309676 -0.306712 -0.301996 -0.324605 -0.288686 -0.431368 -0.441836 -0.449949 -0.457163 -0.460801 -0.42297 -0.404343 -0.385923 -0.395067 -0.421691 -0.41802 -0.411517 -0.437217 -0.398716 -0.499992 -0.480347 -0.46099 -0.468394 -0.500639 -0.498439 -0.489536 -0.518992 -0.477319 -0.266354 -0.280262 -0.293357 -0.306345 -0.318312 -0.330101 -0.340623 -0.291749 -0.277269 -0.262836 -0.248512 -0.234235 -0.265627 -0.253862 -0.241349 -0.267019 -0.214684 -0.227694 -0.240736 -0.238169 -0.216541 -0.307874 -0.298497 -0.28798 -0.314225 -0.251879 -0.267325 -0.282842 -0.27562 -0.258017 -0.410531 -0.395456 -0.380395 -0.365453 -0.350538 -0.335743 -0.320985 -0.349625 -0.333749 -0.31695 -0.347238 -0.360816 -0.374406 -0.378146 -0.34253 -0.321358 -0.306893 -0.291556 -0.320277 -0.293534 -0.407679 -0.394645 -0.380095 -0.441961 -0.427544 -0.41152 -0.444108 -0.41102 -0.34605 -0.362153 -0.378321 -0.373892 -0.349019 -0.100096 -0.106059 -0.112024 -0.118007 -0.123992 -0.129996 -0.136001 -0.142025 -0.14805 -0.154095 -0.16014 -0.166206 -0.172273 -0.14585 -0.161708 -0.177265 -0.192821 -0.207982 -0.223131 -0.237774 -0.183861 -0.174937 -0.16602 -0.157138 -0.148264 -0.160851 -0.146758 -0.132383 -0.15422 -0.144509 -0.131867 -0.118965 -0.1393 -0.124439 -0.215577 -0.202352 -0.188654 -0.212717 -0.193523 -0.181692 -0.169428 -0.191998 -0.171399 -0.172936 -0.191785 -0.210309 -0.228839 -0.246941 -0.265045 -0.282591 -0.219795 -0.210789 -0.201786 -0.193751 -0.176717 -0.159368 -0.184237 -0.169199 -0.260113 -0.24403 -0.227412 -0.254512 -0.233556 -0.256061 -0.246972 -0.237887 -0.22694 -0.206911 -0.186556 -0.214491 -0.199334 -0.305205 -0.286171 -0.266571 -0.296766 -0.275583 -0.01637 -0.0327415 -0.0490637 -0.0653898 -0.0816147 -0.0978454 -0.113918 -0.0623797 -0.0593775 -0.0563755 -0.0533812 -0.0503873 -0.0445538 -0.0297332 -0.014866 -0.0312354 -0.0400557 -0.0267325 -0.0133658 -0.028231 -0.025234 -0.103421 -0.0888379 -0.0741056 -0.0933352 -0.0753737 -0.079857 -0.0843413 -0.0929574 -0.0666178 -0.0193898 -0.0387809 -0.05812 -0.0774629 -0.0966989 -0.115941 -0.135014 -0.0744363 -0.0714181 -0.0683998 -0.0535856 -0.0357573 -0.0178779 -0.037267 -0.0342474 -0.124449 -0.10688 -0.0891456 -0.111403 -0.102356 -0.0865608 -0.0835249 -0.0804895 -0.0626677 -0.0418126 -0.020906 -0.0433309 -0.0402946 -0.145616 -0.12503 -0.104276 -0.129582 -0.120478 -0.011253 -0.02251 -0.033771 -0.0450443 -0.0563253 -0.0676266 -0.0789392 -0.0902799 -0.101635 -0.113026 -0.124434 -0.135885 -0.147356 -0.158875 -0.170416 -0.0951304 -0.0999205 -0.104404 -0.108805 -0.112838 -0.116761 -0.120256 -0.123615 -0.126479 -0.129183 -0.131404 -0.133448 -0.134781 -0.102056 -0.0874035 -0.0727777 -0.0581894 -0.0436189 -0.0290708 -0.0145317 -0.0562455 -0.0542457 -0.0520625 -0.049836 -0.0474561 -0.0678401 -0.0814668 -0.0951134 -0.0844768 -0.0623211 -0.0748319 -0.0873583 -0.0781813 -0.0712527 -0.0135483 -0.0271031 -0.0406647 -0.028101 -0.0124485 -0.0249023 -0.0373613 -0.0260136 -0.0237143 -0.112906 -0.0966726 -0.0804939 -0.0643466 -0.0482354 -0.0321428 -0.0160683 -0.0630056 -0.0615853 -0.0599217 -0.0770266 -0.0925165 -0.108031 -0.0946543 -0.0900114 -0.0314737 -0.030765 -0.0299351 -0.0461606 -0.0153776 -0.0671353 -0.0664691 -0.0654511 -0.0831033 -0.0998626 -0.116568 -0.100862 -0.0983329 -0.033536 -0.0332028 -0.0326944 -0.0497985 -0.0165889 -0.221305 -0.206162 -0.191079 -0.176094 -0.16116 -0.146308 -0.131501 -0.170117 -0.163983 -0.157294 -0.15049 -0.143228 -0.177897 -0.191893 -0.20593 -0.199116 -0.163225 -0.176023 -0.188852 -0.184021 -0.167492 -0.122523 -0.136298 -0.150106 -0.141371 -0.119114 -0.125131 -0.130765 -0.112503 -0.137783 -0.203463 -0.201467 -0.198377 -0.195017 -0.1909 -0.186541 -0.181418 -0.211701 -0.228475 -0.245379 -0.232419 -0.236041 -0.238366 -0.21859 -0.253378 -0.21244 -0.218485 -0.223623 -0.202448 -0.234582 -0.145534 -0.161942 -0.178443 -0.164729 -0.167293 -0.168958 -0.150258 -0.184242 -0.139232 -0.154937 -0.170684 -0.15854 -0.150708 -0.00585129 -0.0117039 -0.0175573 -0.0234145 -0.0292733 -0.0351384 -0.0410058 -0.0468818 -0.0527607 -0.0586503 -0.0645431 -0.0704487 -0.0763577 -0.0822811 -0.0882078 -0.0525651 -0.0582383 -0.0637875 -0.0693194 -0.0746915 -0.0800361 -0.0851789 -0.0262508 -0.0290813 -0.031849 -0.0346069 -0.0372841 -0.0399461 -0.0425065 -0.0259482 -0.0172967 -0.00864716 -0.0159188 -0.0145358 -0.0131214 -0.0218059 -0.007267 -0.0212427 -0.0199639 -0.0186342 -0.0299503 -0.00998039 -0.0606234 -0.0519436 -0.0432694 -0.0509361 -0.0436458 -0.0363592 -0.0393963 -0.0478017 -0.0638119 -0.0599645 -0.055965 -0.0699895 -0.0499475 -0.130591 -0.12179 -0.112998 -0.104233 -0.0954773 -0.0867458 -0.0780224 -0.095896 -0.087539 -0.0789992 -0.0948894 -0.10226 -0.109637 -0.112035 -0.0922753 -0.0655451 -0.072867 -0.0801941 -0.079816 -0.0657641 -0.12817 -0.120402 -0.112334 -0.130544 -0.140723 -0.150916 -0.149827 -0.131273 -0.106626 -0.100177 -0.0934772 -0.110273 -0.0900929 -0.00591666 -0.0118331 -0.0177284 -0.0236228 -0.0294742 -0.035323 -0.0411051 -0.0206634 -0.0177078 -0.0147529 -0.0118007 -0.00884901 -0.00589897 -0.00294921 -0.00885648 -0.00591148 -0.00295585 -0.0073903 -0.00887042 -0.0103509 -0.0132896 -0.00443534 -0.00147741 -0.00295509 -0.00443289 -0.00442725 -0.00147761 -0.0205309 -0.0176439 -0.0147232 -0.0220583 -0.026477 -0.030897 -0.03081 -0.0220935 -0.00440941 -0.0088197 -0.0132305 -0.0102627 -0.0073598 -0.0444147 -0.0414355 -0.0384571 -0.0354849 -0.0325137 -0.0295479 -0.026583 -0.0266294 -0.0177735 -0.00888675 -0.0192617 -0.0207528 -0.0222443 -0.031094 -0.0103763 -0.0221746 -0.0148005 -0.00740032 -0.0162857 -0.0133156 -0.0617609 -0.0530682 -0.0442775 -0.0575157 -0.0619731 -0.0664322 -0.0721289 -0.0517046 -0.0397507 -0.0441857 -0.0486226 -0.0514208 -0.036868 
</DataArray>
<DataArray Name="Warping_Y" format="ascii" type="Float64">