<?xml version="1.0"?>
<VTKFile byte_order="LittleEndian" type="UnstructuredGrid" version="0.1">
<UnstructuredGrid>
<Piece NumberOfCells="900" NumberOfPoints="2821">
<PointData>
<DataArray Name="Warping_X" format="ascii" type="Float64">
0.0111873 0.0109358 0.0106453 0.0102805 0.00990797 0.00953797 0.00916385 0.00878703 0.00840863 0.00802937 0.00764936 0.00726872 0.00688769 0.00650624 0.00612457 0.00574259 0.00536046 0.00497811 0.00459566 0.00421304 0.00383035 0.00344754 0.00306467 0.00268171 0.00229872 0.00191566 0.00153258 0.00114946 0.000766319 0.000383161 -7.02715e-11 -0.000383162 -0.000766319 -0.00114946 -0.00153258 -0.00191566 -0.00229872 -0.00268171 -0.00306467 -0.00344754 -0.00383035 -0.00421304 -0.00459566 -0.00497811 -0.00536047 -0.00574259 -0.00612457 -0.00650624 -0.00688769 -0.00726872 -0.00764936 -0.00802937 -0.00840863 -0.00878703 -0.00916385 -0.00953797 -0.00990797 -0.0102805 -0.0106453 -0.0109358 -0.0111873 -0.0114415 -0.0115059 -0.0114959 -0.0115086 -0.0115174 -0.0115262 -0.0115308 -0.0115359 -0.0115397 -0.0115436 -0.0115464 -0.0115492 -0.0115513 -0.0115535 -0.0115551 -0.0115567 -0.0115579 -0.0115591 -0.0115599 -0.0115608 -0.0115615 -0.0115622 -0.0115626 -0.0115631 -0.0115634 -0.0115637 -0.0115639 -0.0115641 -0.0115641 -0.0115642 -0.0115641 -0.0115641 -0.0115639 -0.0115637 -0.0115634 -0.0115631 -0.0115626 -0.0115622 -0.0115615 -0.0115608 -0.0115599 -0.0115591 -0.0115579 -0.0115567 -0.0115551 -0.0115535 -0.0115513 -0.0115492 -0.0115464 -0.0115436 -0.0115397 -0.0115359 -0.0115308 -0.0115262 -0.0115174 -0.0115086 -0.0114959 -0.0115059 -0.0114415 -0.0111873 -0.0109358 -0.0106453 -0.0102805 -0.00990797 -0.00953797 -0.00916385 -0.00878703 -0.00840863 -0.00802937 -0.00764936 -0.00726872 -0.00688769 -0.00650624 -0.00612457 -0.00574259 -0.00536047 -0.00497811 -0.00459566 -0.00421304 -0.00383035 -0.00344754 -0.00306467 -0.00268171 -0.00229872 -0.00191566 -0.00153258 -0.00114946 -0.000766319 -0.000383162 -7.02719e-11 0.000383161 0.000766319 0.00114946 0.00153258 0.00191566 0.00229872 0.00268171 0.00306467 0.00344754 0.00383035 0.00421304 0.00459566 0.00497811 0.00536046 0.00574259 0.00612457 0.00650624 0.00688769 0.00726872 0.00764936 0.00802937 0.00840863 0.00878703 0.00916385 0.00953797 0.00990797 0.0102805 0.0106453 0.0109358 0.0111873 0.0114415 0.0115059 0.0114959 0.0115086 0.0115174 0.0115262 0.0115308 0.0115359 0.0115397 0.0115436 0.0115464 0.0115492 0.0115513 0.0115535 0.0115551 0.0115567 0.0115579 0.0115591 0.0115599 0.0115608 0.0115615 0.0115622 0.0115626 0.0115631 0.0115634 0.0115637 0.0115639 0.0115641 0.0115641 0.0115642 0.0115641 0.0115641 0.0115639 0.0115637 0.0115634 0.0115631 0.0115626 0.0115622 0.0115615 0.0115608 0.0115599 0.0115591 0.0115579 0.0115567 0.0115551 0.0115535 0.0115513 0.0115492 0.0115464 0.0115436 0.0115397 0.0115359 0.0115308 0.0115262 0.0115174 0.0115086 0.0114959 0.0115059 0.0114415 -1.41454e-10 -4.12298e-11 -2.83271e-11 -1.53934e-11 -1.51613e-11 -1.48725e-11 -1.18381e-11 -8.73077e-12 -6.56425e-12 -4.31943e-12 -2.2195e-12 -3.60203e-14 1.77569e-12 3.67851e-12 5.2402e-12 6.90276e-12 8.2083e-12 9.62515e-12 1.06881e-11 1.18723e-11 1.27055e-11 1.36683e-11 1.4285e-11 1.50379e-11 1.54489e-11 1.6001e-11 1.62148e-11 1.65729e-11 1.65948e-11 1.67625e-11 1.65948e-11 1.65729e-11 1.62149e-11 1.60011e-11 1.5449e-11 1.50379e-11 1.42851e-11 1.36685e-11 1.27056e-11 1.18724e-11 1.06883e-11 9.62533e-12 8.20849e-12 6.90297e-12 5.24042e-12 3.67874e-12 1.77593e-12 -3.57645e-14 -2.21923e-12 -4.31915e-12 -6.56395e-12 -8.73046e-12 -1.18378e-11 -1.48721e-11 -1.5161e-11 -1.5393e-11 -2.83267e-11 -4.12294e-11 -1.41453e-10 -0.000385459 -0.000770919 -0.00115638 -0.00154184 -0.0019273 -0.00231276 -0.00269822 -0.00308369 -0.00346915 -0.00385462 -0.00424008 -0.00462555 -0.00501102 -0.00539649 -0.00578196 -0.00616743 -0.00655291 -0.00693838 -0.00732385 -0.00770933 -0.00809481 -0.00848029 -0.00886576 -0.00925125 -0.00963673 -0.0100222 -0.0104077 -0.0107932 -0.0111787 -0.00539644 -0.00539641 -0.00539628 -0.00539617 -0.00539595 -0.00539574 -0.00539542 -0.0053951 -0.00539464 -0.00539419 -0.00539358 -0.00539295 -0.00539214 -0.0053913 -0.00539023 -0.00538912 -0.00538774 -0.00538629 -0.00538453 -0.00538267 -0.00538049 -0.00537819 -0.0053756 -0.0053729 -0.0053701 -0.00536728 -0.00536479 -0.00536249 -0.00536128 -0.00500611 -0.00462096 -0.00423581 -0.00385068 -0.00346557 -0.00308047 -0.00269538 -0.00231031 -0.00192524 -0.00154019 -0.00115513 -0.000770086 -0.000385042 -0.00308099 -0.00308149 -0.00308188 -0.00308226 -0.00308254 -0.00308282 -0.00308302 -0.00308322 -0.00308335 -0.00308349 -0.00308356 -0.00308364 -0.00308366 -0.00346818 -0.00385356 -0.00423893 -0.00462432 -0.0050097 -0.0034667 -0.00385193 -0.00423717 -0.00462242 -0.00500767 -0.00385132 -0.0046217 -0.00385322 -0.00385287 -0.00385241 -0.00346756 -0.00500884 -0.00462351 -0.00423818 -0.00462392 -0.00462297 -0.00346893 -0.00385437 -0.00423982 -0.00462527 -0.00501071 -0.00385421 -0.00385405 -0.0038538 -0.00346863 -0.00501031 -0.00462489 -0.00423946 -0.00462507 -0.0046246 -0.00385458 -0.00385456 -0.00385446 -0.0034691 -0.00501094 -0.00462548 -0.00424002 -0.00462551 -0.00462537 -0.000385346 -0.000770693 -0.00115604 -0.00154139 -0.00192674 -0.0023121 -0.00269746 -0.00154125 -0.0015411 -0.00154091 -0.00154071 -0.00154045 -0.00115582 -0.000770547 -0.000385273 -0.000770621 -0.00115552 -0.000770348 -0.000385173 -0.000770449 -0.00077022 -0.00269696 -0.00231167 -0.00192638 -0.00231189 -0.00269628 -0.00231108 -0.00192589 -0.00231138 -0.00231071 -0.000385433 -0.000770866 -0.0011563 -0.00154173 -0.00192717 -0.00231261 -0.00269805 -0.00154167 -0.0015416 -0.00154149 -0.0011562 -0.000770797 -0.000385398 -0.000770831 -0.000770745 -0.00269781 -0.0023124 -0.001927 -0.0023125 -0.00231225 -0.00154182 -0.00154181 -0.00154177 -0.00115636 -0.000770906 -0.000385453 -0.000770911 -0.000770885 -0.00231274 -0.00231272 -0.00231266 -0.00192727 -0.00269818 -0.0049939 -0.00460965 -0.00422543 -0.00384124 -0.00345707 -0.00307291 -0.00268877 -0.00230464 -0.00192052 -0.00153641 -0.0011523 -0.0007682 -0.000384099 -0.00307417 -0.00307538 -0.00307645 -0.00307746 -0.00307833 -0.00307915 -0.00307983 -0.0034622 -0.00384697 -0.00423175 -0.00461657 -0.00500141 -0.0038457 -0.00384436 -0.00384284 -0.00345986 -0.00499804 -0.00461345 -0.00422889 -0.00461505 -0.0046116 -0.00384989 -0.00384906 -0.00384804 -0.00346409 -0.00462002 -0.00461904 -0.00461784 -0.00423403 -0.00500406 -0.00153703 -0.00153762 -0.00153815 -0.00153866 -0.0015391 -0.00153951 -0.00153986 -0.00192334 -0.00230803 -0.00269274 -0.00192204 -0.00230647 -0.00269092 -0.00230558 -0.00230727 -0.0019244 -0.00230931 -0.00269422 -0.00230869 -0.00230982 -0.000384659 -0.000769321 -0.00115399 -0.000769067 -0.000768801 -0.000768506 -0.000384399 -0.00115321 -0.000769922 -0.000769747 -0.00076954 -0.000384872 -0.00115463 -0.00306501 -0.00306551 -0.00306648 -0.00306756 -0.00306887 -0.0030702 -0.00307157 -0.00345093 -0.00383426 -0.00421756 -0.00460083 -0.00498408 -0.0038328 -0.00383149 -0.00383081 -0.00344855 -0.00497992 -0.00459718 -0.0042144 -0.00459892 -0.00459627 -0.00383951 -0.00383774 -0.00383599 -0.00345397 -0.00498909 -0.00460529 -0.00422151 -0.00460751 -0.00460306 -0.00038348 -0.000766956 -0.00115043 -0.00153389 -0.00191733 -0.00230076 -0.00268417 -0.00153339 -0.00153295 -0.00153273 -0.00114974 -0.000766502 -0.000383255 -0.000766716 -0.000766392 -0.00268244 -0.00229931 -0.00191616 -0.0023 -0.00229896 -0.00153577 -0.00153511 -0.00153449 -0.00115134 -0.000767558 -0.00038378 -0.000767881 -0.000767252 -0.00230366 -0.00230266 -0.0023017 -0.00191889 -0.00268643 -0.0111712 -0.0107858 -0.0104003 -0.0100149 -0.00962952 -0.00924415 -0.00885877 -0.00847343 -0.00808809 -0.00770278 -0.00731748 -0.00693221 -0.00654695 -0.00616171 -0.00577649 -0.00847452 -0.00847562 -0.00847643 -0.00847725 -0.00847784 -0.00847845 -0.00847886 -0.0084793 -0.00847957 -0.00847986 -0.00848001 -0.00848018 -0.00848022 -0.00886389 -0.00924934 -0.00963479 -0.0100203 -0.0104057 -0.0107912 -0.0111767 -0.0100196 -0.010019 -0.0100181 -0.0100172 -0.0100161 -0.00963353 -0.0092481 -0.00886267 -0.00924871 -0.00924527 -0.00924641 -0.00924725 -0.00963182 -0.00886101 -0.0111754 -0.0107899 -0.0104044 -0.0107905 -0.0107869 -0.0107881 -0.010789 -0.0111736 -0.0104027 -0.0100221 -0.0100221 -0.0100219 -0.0100218 -0.0100214 -0.0100212 -0.0100207 -0.00963628 -0.0092508 -0.00886533 -0.00963662 -0.00925114 -0.00886566 -0.00925118 -0.00925096 -0.00963568 -0.00925022 -0.00886475 -0.0092505 -0.00924977 -0.0111782 -0.0107927 -0.0104072 -0.0111786 -0.0107931 -0.0104076 -0.0107931 -0.0107929 -0.0111776 -0.0107921 -0.0104066 -0.0107924 -0.0107916 -0.00578049 -0.0061659 -0.00655131 -0.00693673 -0.00732215 -0.00770758 -0.00809301 -0.00693619 -0.00693565 -0.00693492 -0.00693418 -0.0069332 -0.00655027 -0.0061649 -0.00577954 -0.0061654 -0.00654885 -0.00616354 -0.00577823 -0.00616422 -0.00616264 -0.00809184 -0.00770644 -0.00732104 -0.007707 -0.00770383 -0.00770488 -0.00770565 -0.00809024 -0.00731952 -0.00578162 -0.00616708 -0.00655254 -0.006938 -0.00732346 -0.00770893 -0.00809439 -0.00693774 -0.00693749 -0.0069371 -0.00616684 -0.00616661 -0.00616625 -0.00578117 -0.00655205 -0.00809384 -0.00770839 -0.00732294 -0.00770865 -0.00770797 -0.00693832 -0.00693829 -0.00693813 -0.00655281 -0.00616735 -0.00578188 -0.00616738 -0.0061672 -0.0080947 -0.00770923 -0.00732376 -0.00770927 -0.00770907 -0.00841236 -0.00841756 -0.00842538 -0.00843286 -0.00843937 -0.00844534 -0.00845015 -0.00845464 -0.00845814 -0.0084615 -0.0084641 -0.00846664 -0.00846859 -0.00847051 -0.00847197 -0.00883955 -0.00922459 -0.00960968 -0.00999487 -0.0103801 -0.0107653 -0.0111507 -0.00998978 -0.00998473 -0.00997681 -0.00996838 -0.00995808 -0.0099425 -0.00992485 -0.00958416 -0.00920038 -0.00881644 -0.0092077 -0.00921471 -0.00921974 -0.00959959 -0.00882992 -0.00956067 -0.00917974 -0.00879873 -0.00919058 -0.00917041 -0.0111264 -0.0107388 -0.0103538 -0.0107468 -0.0107554 -0.0107602 -0.0111401 -0.0103698 -0.0111021 -0.0107203 -0.0103294 -0.0107284 -0.0106661 -0.0100134 -0.0100118 -0.0100098 -0.0100077 -0.010005 -0.0100023 -0.00999852 -0.00962239 -0.00923712 -0.00885185 -0.00923912 -0.00924113 -0.00924263 -0.00962646 -0.0088558 -0.00922821 -0.00923179 -0.00923445 -0.00961698 -0.0088466 -0.0111638 -0.0107784 -0.010393 -0.011168 -0.0107826 -0.0103972 -0.0107842 -0.0107805 -0.010769 -0.0107729 -0.0107756 -0.0111582 -0.0103875 -0.00576251 -0.00614689 -0.00653132 -0.00691583 -0.00730039 -0.00768506 -0.00806979 -0.00575046 -0.00613361 -0.00651675 -0.00689988 -0.00728302 -0.00766622 -0.00804945 -0.0068956 -0.00689152 -0.00688923 -0.00650955 -0.00612732 -0.00574501 -0.00613036 -0.00612567 -0.00803643 -0.00765496 -0.0072734 -0.00766055 -0.00765163 -0.00691228 -0.00690849 -0.00690428 -0.00652452 -0.0061406 -0.00575673 -0.00614383 -0.00613715 -0.00806094 -0.00767669 -0.00729254 -0.00768102 -0.00767162 -0.00693092 -0.00692959 -0.0069279 -0.00692614 -0.00692395 -0.00692164 -0.00691882 -0.00654112 -0.00615614 -0.00577119 -0.00615775 -0.0061593 -0.00616053 -0.00654442 -0.00577419 -0.00653682 -0.00615206 -0.00576734 -0.00615415 -0.00614955 -0.00808145 -0.00769631 -0.0073112 -0.00769818 -0.0077 -0.0077014 -0.00808523 -0.00731477 -0.00768834 -0.00769145 -0.00769393 -0.00807644 -0.00730651 -0.00536128 -0.00536249 -0.00536479 -0.00536728 -0.0053701 -0.0053729 -0.0053756 -0.00537819 -0.00538049 -0.00538267 -0.00538453 -0.00538629 -0.00538774 -0.00538912 -0.00539023 -0.0053913 -0.00539214 -0.00539295 -0.00539358 -0.00539419 -0.00539464 -0.0053951 -0.00539542 -0.00539574 -0.00539595 -0.00539617 -0.00539628 -0.00539641 -0.00539644 -0.00500406 -0.00461904 -0.00423403 -0.00384906 -0.00346409 -0.00307915 -0.00269422 -0.00230931 -0.0019244 -0.00153951 -0.00115463 -0.000769747 -0.000384872 -0.00307833 -0.00307746 -0.00307645 -0.00307538 -0.00307417 -0.00307291 -0.00307157 -0.0030702 -0.00306887 -0.00306756 -0.00306648 -0.00306551 -0.00306501 -0.00345707 -0.00384124 -0.00422543 -0.00460965 -0.0049939 -0.0034622 -0.00384697 -0.00423175 -0.00461657 -0.00500141 -0.00384804 -0.00461784 -0.00384284 -0.00384436 -0.0038457 -0.00345986 -0.0046116 -0.00461345 -0.00461505 -0.00422889 -0.00499804 -0.00345093 -0.00383426 -0.00421756 -0.00460083 -0.00498408 -0.00383599 -0.00383774 -0.00383951 -0.00345397 -0.00498909 -0.00460529 -0.00422151 -0.00460306 -0.00460751 -0.00383081 -0.00383149 -0.0038328 -0.00344855 -0.00497992 -0.00459718 -0.0042144 -0.00459627 -0.00459892 -0.000384099 -0.0007682 -0.0011523 -0.00153641 -0.00192052 -0.00230464 -0.00268877 -0.00153703 -0.00153762 -0.00153815 -0.00153866 -0.0015391 -0.00115321 -0.000768801 -0.000384399 -0.000768506 -0.00076954 -0.000769321 -0.000769067 -0.00115399 -0.000384659 -0.00269092 -0.00230647 -0.00192204 -0.00230558 -0.00230869 -0.00230803 -0.00230727 -0.00269274 -0.00192334 -0.00038348 -0.000766956 -0.00115043 -0.00153389 -0.00191733 -0.00230076 -0.00268417 -0.00153449 -0.00153511 -0.00153577 -0.00115134 -0.000767558 -0.00038378 -0.000767252 -0.000767881 -0.00268643 -0.00230266 -0.00191889 -0.0023017 -0.00230366 -0.00153273 -0.00153295 -0.00153339 -0.000766392 -0.000766502 -0.000766716 -0.000383255 -0.00114974 -0.00229896 -0.00229931 -0.0023 -0.00191616 -0.00268244 -0.0050097 -0.00462432 -0.00423893 -0.00385356 -0.00346818 -0.00308282 -0.00269746 -0.0023121 -0.00192674 -0.00154139 -0.00115604 -0.000770693 -0.000385346 -0.00308254 -0.00308226 -0.00308188 -0.00308149 -0.00308099 -0.00308047 -0.00307983 -0.0034667 -0.00385193 -0.00423717 -0.00462242 -0.00500767 -0.00385241 -0.00385287 -0.00385322 -0.00346756 -0.00462297 -0.00462351 -0.00462392 -0.00423818 -0.00500884 -0.00384989 -0.00385068 -0.00385132 -0.00346557 -0.00462002 -0.00462096 -0.0046217 -0.00423581 -0.00500611 -0.00154125 -0.0015411 -0.00154091 -0.00154071 -0.00154045 -0.00154019 -0.00153986 -0.00192589 -0.00231108 -0.00269628 -0.00231138 -0.00231167 -0.00231189 -0.00192638 -0.00269696 -0.00230982 -0.00231031 -0.00231071 -0.00192524 -0.00269538 -0.000385173 -0.000770348 -0.00115552 -0.000770449 -0.000770547 -0.000770621 -0.000385273 -0.00115582 -0.000385042 -0.000770086 -0.00115513 -0.00077022 -0.000769922 -0.00308366 -0.00308364 -0.00308356 -0.00308349 -0.00308335 -0.00308322 -0.00308302 -0.00346893 -0.00385437 -0.00423982 -0.00462527 -0.00501071 -0.00385446 -0.00385456 -0.00385458 -0.0034691 -0.00501094 -0.00462548 -0.00424002 -0.00462537 -0.00462551 -0.0038538 -0.00385405 -0.00385421 -0.00346863 -0.00501031 -0.00462489 -0.00423946 -0.0046246 -0.00462507 -0.00154182 -0.00154181 -0.00154177 -0.00154173 -0.00154167 -0.0015416 -0.00154149 -0.00192717 -0.00231261 -0.00269805 -0.00231266 -0.00231272 -0.00231274 -0.00192727 -0.00269818 -0.00231225 -0.0023124 -0.0023125 -0.001927 -0.00269781 -0.000385433 -0.000770866 -0.0011563 -0.000770885 -0.000770906 -0.000770911 -0.000385453 -0.00115636 -0.000770745 -0.000770797 -0.000770831 -0.000385398 -0.0011562 -0.011168 -0.0107826 -0.0103972 -0.0100118 -0.00962646 -0.00924113 -0.0088558 -0.00847051 -0.00808523 -0.0077 -0.00731477 -0.00692959 -0.00654442 -0.0061593 -0.00577419 -0.00846859 -0.00846664 -0.0084641 -0.0084615 -0.00845814 -0.00845464 -0.00845015 -0.00844534 -0.00843937 -0.00843286 -0.00842538 -0.00841756 -0.00841236 -0.00883955 -0.00922459 -0.00960968 -0.00999487 -0.0103801 -0.0107653 -0.0111507 -0.00999852 -0.0100023 -0.010005 -0.0100077 -0.0100098 -0.00961698 -0.00923179 -0.0088466 -0.00922821 -0.00962239 -0.00923712 -0.00885185 -0.00923445 -0.00923912 -0.0111582 -0.0107729 -0.0103875 -0.010769 -0.0107805 -0.0107784 -0.0107756 -0.0111638 -0.010393 -0.00992485 -0.0099425 -0.00995808 -0.00996838 -0.00997681 -0.00998473 -0.00998978 -0.00958416 -0.00920038 -0.00881644 -0.00956067 -0.00917974 -0.00879873 -0.00917041 -0.00919058 -0.00921974 -0.00921471 -0.0092077 -0.00959959 -0.00882992 -0.0111264 -0.0107388 -0.0103538 -0.0107284 -0.0107203 -0.0106661 -0.0111021 -0.0103294 -0.0107602 -0.0107554 -0.0107468 -0.0111401 -0.0103698 -0.00576251 -0.00614689 -0.00653132 -0.00691583 -0.00730039 -0.00768506 -0.00806979 -0.00691882 -0.00692164 -0.00692395 -0.00692614 -0.0069279 -0.00653682 -0.00615206 -0.00576734 -0.00614955 -0.00654112 -0.00615614 -0.00577119 -0.00615415 -0.00615775 -0.00807644 -0.00769145 -0.00730651 -0.00768834 -0.00808145 -0.00769631 -0.0073112 -0.00769393 -0.00769818 -0.00575046 -0.00613361 -0.00651675 -0.00689988 -0.00728302 -0.00766622 -0.00804945 -0.00690428 -0.00690849 -0.00691228 -0.00652452 -0.0061406 -0.00575673 -0.00613715 -0.00614383 -0.00806094 -0.00767669 -0.00729254 -0.00767162 -0.00768102 -0.00688923 -0.00689152 -0.0068956 -0.00612567 -0.00612732 -0.00613036 -0.00574501 -0.00650955 -0.00803643 -0.00765496 -0.0072734 -0.00765163 -0.00766055 -0.0111767 -0.0107912 -0.0104057 -0.0100203 -0.00963479 -0.00924934 -0.00886389 -0.00847845 -0.00809301 -0.00770758 -0.00732215 -0.00693673 -0.00655131 -0.0061659 -0.00578049 -0.00847784 -0.00847725 -0.00847643 -0.00847562 -0.00847452 -0.00847343 -0.00847197 -0.0100196 -0.010019 -0.0100181 -0.0100172 -0.0100161 -0.0100149 -0.0100134 -0.0104027 -0.0107881 -0.0111736 -0.010789 -0.0107899 -0.0107905 -0.0104044 -0.0111754 -0.0107842 -0.0107858 -0.0107869 -0.0104003 -0.0111712 -0.00886101 -0.00924641 -0.00963182 -0.00924725 -0.0092481 -0.00924871 -0.00886267 -0.00963353 -0.00885877 -0.00924415 -0.00962952 -0.00924527 -0.00924263 -0.00577823 -0.00616354 -0.00654885 -0.00693418 -0.00731952 -0.00770488 -0.00809024 -0.00693492 -0.00693565 -0.00693619 -0.00655027 -0.0061649 -0.00577954 -0.00616422 -0.0061654 -0.00809184 -0.00770644 -0.00732104 -0.00770565 -0.007707 -0.00693092 -0.00693221 -0.0069332 -0.00616053 -0.00616171 -0.00616264 -0.00577649 -0.00654695 -0.00808809 -0.00770278 -0.00731748 -0.0077014 -0.00770383 -0.00848022 -0.00848018 -0.00848001 -0.00847986 -0.00847957 -0.0084793 -0.00847886 -0.0100221 -0.0100221 -0.0100219 -0.0100218 -0.0100214 -0.0100212 -0.0100207 -0.0104072 -0.0107927 -0.0111782 -0.0107929 -0.0107931 -0.0107931 -0.0104076 -0.0111786 -0.0107916 -0.0107921 -0.0107924 -0.0104066 -0.0111776 -0.00886533 -0.0092508 -0.00963628 -0.00886566 -0.00925114 -0.00963662 -0.00925118 -0.00925096 -0.00924977 -0.00925022 -0.0092505 -0.00886475 -0.00963568 -0.00578162 -0.00616708 -0.00655254 -0.006938 -0.00732346 -0.00770893 -0.00809439 -0.00693813 -0.00693829 -0.00693832 -0.00655281 -0.00616735 -0.00578188 -0.0061672 -0.00616738 -0.0080947 -0.00770923 -0.00732376 -0.00770907 -0.00770927 -0.0069371 -0.00693749 -0.00693774 -0.00655205 -0.00616661 -0.00578117 -0.00616625 -0.00616684 -0.00770797 -0.00770839 -0.00770865 -0.00732294 -0.00809384 0.0111787 0.0107932 0.0104077 0.0100222 0.00963673 0.00925125 0.00886576 0.00848029 0.00809481 0.00770933 0.00732385 0.00693838 0.00655291 0.00616743 0.00578196 0.00539649 0.00501102 0.00462555 0.00424008 0.00385462 0.00346915 0.00308369 0.00269822 0.00231276 0.0019273 0.00154184 0.00115638 0.000770919 0.000385459 0.00616738 0.00616735 0.0061672 0.00616708 0.00616684 0.00616661 0.00616625 0.0061659 0.0061654 0.0061649 0.00616422 0.00616354 0.00616264 0.00616171 0.00616053 0.0061593 0.00615775 0.00615614 0.00615415 0.00615206 0.00614955 0.00614689 0.00614383 0.0061406 0.00613715 0.00613361 0.00613036 0.00612732 0.00612567 0.00654695 0.00693221 0.00731748 0.00770278 0.00808809 0.00847343 0.00885877 0.00924415 0.00962952 0.0100149 0.0104003 0.0107858 0.0111712 0.00655205 0.00693749 0.00732294 0.00770839 0.00809384 0.0084793 0.00886475 0.00925022 0.00963568 0.0100212 0.0104066 0.0107921 0.0111776 0.00847957 0.00847986 0.00848001 0.00848018 0.00848022 0.00693774 0.006938 0.00693813 0.00693829 0.00693832 0.00655254 0.00655281 0.00809439 0.00770893 0.00732346 0.00770865 0.0080947 0.00770923 0.00732376 0.00770907 0.00770927 0.0100214 0.0100218 0.0100219 0.0100221 0.0100221 0.00963628 0.0092508 0.00886533 0.0092505 0.00925118 0.00925114 0.00925096 0.00963662 0.00886566 0.0111782 0.0107927 0.0104072 0.0107924 0.0107931 0.0107931 0.0107929 0.0111786 0.0104076 0.00847452 0.00847562 0.00847643 0.00847725 0.00847784 0.00847845 0.00847886 0.00809184 0.00770644 0.00732104 0.00693565 0.00655027 0.00770565 0.00770488 0.00770383 0.00809024 0.00693492 0.00693418 0.0069332 0.00731952 0.00654885 0.00770797 0.00770758 0.007707 0.00809301 0.00655131 0.00693673 0.00732215 0.0069371 0.00693619 0.0100161 0.0100172 0.0100181 0.010019 0.0100196 0.0100203 0.0100207 0.00963353 0.0092481 0.00886267 0.00924725 0.00924641 0.00924527 0.00963182 0.00886101 0.00924977 0.00924934 0.00924871 0.00963479 0.00886389 0.0111754 0.0107899 0.0104044 0.010789 0.0107881 0.0107869 0.0111736 0.0104027 0.0107916 0.0107912 0.0107905 0.0111767 0.0104057 0.00653132 0.00691583 0.00730039 0.00768506 0.00806979 0.00845464 0.00883955 0.00922459 0.00960968 0.00999487 0.0103801 0.0107653 0.0111507 0.00845814 0.0084615 0.0084641 0.00846664 0.00846859 0.00847051 0.00847197 0.00808145 0.00769631 0.0073112 0.00692614 0.00654112 0.00769393 0.00769145 0.00768834 0.00807644 0.00653682 0.00692164 0.00730651 0.00692395 0.00691882 0.0077014 0.0077 0.00769818 0.00808523 0.00654442 0.00692959 0.00731477 0.00693092 0.0069279 0.00999852 0.0100023 0.010005 0.0100077 0.0100098 0.0100118 0.0100134 0.00962239 0.00923712 0.00885185 0.00923445 0.00923179 0.00922821 0.00961698 0.0088466 0.00924263 0.00924113 0.00923912 0.00962646 0.0088558 0.0111638 0.0107784 0.010393 0.0107756 0.0107729 0.010769 0.0111582 0.0103875 0.011168 0.0107826 0.0103972 0.0107805 0.0107842 0.00841236 0.00841756 0.00842538 0.00843286 0.00843937 0.00844534 0.00845015 0.00804945 0.00766622 0.00728302 0.00689988 0.00651675 0.00766055 0.00765496 0.00765163 0.00803643 0.0068956 0.00689152 0.00688923 0.0072734 0.00650955 0.00768102 0.00767669 0.00767162 0.00806094 0.00652452 0.00690849 0.00729254 0.00691228 0.00690428 0.0111264 0.0107388 0.0103538 0.00996838 0.00958416 0.00920038 0.00881644 0.00995808 0.0099425 0.00992485 0.0107284 0.0107203 0.0106661 0.0111021 0.0103294 0.00879873 0.00917974 0.00956067 0.00919058 0.00917041 0.00998978 0.00998473 0.00997681 0.0103698 0.0107554 0.0111401 0.0107602 0.0107468 0.00882992 0.00921471 0.00959959 0.00921974 0.0092077 0.000385042 0.000770086 0.00115513 0.00154019 0.00192524 0.00231031 0.00269538 0.00308047 0.00346557 0.00385068 0.00423581 0.00462096 0.00500611 0.0053913 0.00577649 0.00308099 0.00308149 0.00308188 0.00308226 0.00308254 0.00308282 0.00308302 0.00308322 0.00308335 0.00308349 0.00308356 0.00308364 0.00308366 0.00269746 0.0023121 0.00192674 0.00154139 0.00115604 0.000770693 0.000385346 0.00154125 0.0015411 0.00154091 0.00154071 0.00154045 0.00192638 0.00231167 0.00269696 0.00231189 0.00192589 0.00231108 0.00269628 0.00231138 0.00231071 0.000385273 0.000770547 0.00115582 0.000770621 0.000385173 0.000770348 0.00115552 0.000770449 0.00077022 0.00269805 0.00231261 0.00192717 0.00154174 0.0011563 0.000770866 0.000385433 0.00154167 0.0015416 0.00154149 0.001927 0.0023124 0.00269781 0.0023125 0.00231225 0.000385398 0.000770797 0.0011562 0.000770831 0.000770745 0.00154182 0.00154181 0.00154177 0.00231274 0.00231272 0.00231266 0.00269818 0.00192727 0.000385453 0.000770906 0.00115636 0.000770911 0.000770885 0.00578049 0.0053951 0.0050097 0.00462432 0.00423893 0.00385356 0.00346818 0.00462392 0.00462351 0.00462297 0.00462242 0.0046217 0.00500884 0.00539419 0.00577954 0.00539464 0.00500767 0.00539295 0.00577824 0.00539358 0.00539214 0.00346756 0.00385287 0.00423818 0.00385322 0.0034667 0.00385193 0.00423717 0.00385241 0.00385132 0.00578162 0.00539617 0.00501071 0.00462527 0.00423982 0.00385437 0.00346893 0.00462507 0.00462489 0.0046246 0.00501031 0.00539574 0.00578117 0.00539595 0.00539542 0.00346863 0.00385405 0.00423946 0.00385421 0.0038538 0.00462551 0.00462548 0.00462537 0.00501094 0.00539641 0.00578188 0.00539644 0.00539628 0.0034691 0.00385456 0.00424002 0.00385458 0.00385446 0.00306501 0.00306551 0.00306648 0.00306756 0.00306887 0.0030702 0.00307157 0.00307291 0.00307417 0.00307538 0.00307645 0.00307746 0.00307833 0.00307915 0.00307983 0.00268877 0.00230464 0.00192052 0.00153641 0.0011523 0.0007682 0.000384099 0.00268417 0.00230076 0.00191733 0.00153389 0.00115043 0.000766956 0.00038348 0.00153339 0.00153295 0.00153273 0.00191616 0.00229931 0.00268244 0.0023 0.00229896 0.000383255 0.000766502 0.00114974 0.000766716 0.000766392 0.00153577 0.00153511 0.00153449 0.00230366 0.00230266 0.0023017 0.00268643 0.00191889 0.00038378 0.000767558 0.00115134 0.000767881 0.000767252 0.00153986 0.00153951 0.0015391 0.00153866 0.00153815 0.00153762 0.00153703 0.00192334 0.00230803 0.00269274 0.00230869 0.00230931 0.00230982 0.0019244 0.00269422 0.00230558 0.00230647 0.00230727 0.00192204 0.00269092 0.000384659 0.000769321 0.00115399 0.00076954 0.000769747 0.000769922 0.000384872 0.00115463 0.000384399 0.000768801 0.00115321 0.000769067 0.000768506 0.00576251 0.00537819 0.0049939 0.00460965 0.00422543 0.00384124 0.00345707 0.00575046 0.00536728 0.00498408 0.00460083 0.00421756 0.00383426 0.00345093 0.00459892 0.00459718 0.00459627 0.00497992 0.00536249 0.00574501 0.00536479 0.00536128 0.00344855 0.00383149 0.0042144 0.0038328 0.00383081 0.00460751 0.00460529 0.00460306 0.00498909 0.0053729 0.00575673 0.0053756 0.0053701 0.00383951 0.00383774 0.00383599 0.00422151 0.00345397 0.00462002 0.00461904 0.00461784 0.00461657 0.00461505 0.00461345 0.0046116 0.00500141 0.00538629 0.00577119 0.00500406 0.00538912 0.00577419 0.00539023 0.00538774 0.00499804 0.00538267 0.00576734 0.00538453 0.00538049 0.0034622 0.00384697 0.00423175 0.00384804 0.00384906 0.00384989 0.00346409 0.00423403 0.00384284 0.00384436 0.0038457 0.00345986 0.00422889 0.00612567 0.00612732 0.00613036 0.00613361 0.00613715 0.0061406 0.00614383 0.00614689 0.00614955 0.00615206 0.00615415 0.00615614 0.00615775 0.0061593 0.00616053 0.00616171 0.00616264 0.00616354 0.00616422 0.0061649 0.0061654 0.0061659 0.00616625 0.00616661 0.00616684 0.00616708 0.0061672 0.00616735 0.00616738 0.00654442 0.00692959 0.00731477 0.0077 0.00808523 0.00847051 0.0088558 0.00924113 0.00962646 0.0100118 0.0103972 0.0107826 0.011168 0.00652452 0.00690849 0.00729254 0.00767669 0.00806094 0.00844534 0.00882992 0.00921471 0.00959959 0.00998473 0.0103698 0.0107554 0.0111401 0.00843937 0.00843286 0.00842538 0.00841756 0.00841236 0.00804945 0.00766622 0.00728302 0.00689988 0.00651675 0.00767162 0.00690428 0.00765163 0.00765496 0.00766055 0.00803643 0.00688923 0.00689152 0.0068956 0.0072734 0.00650955 0.00997681 0.00996838 0.00995808 0.0099425 0.00992485 0.00958416 0.00920038 0.00881644 0.0092077 0.00917041 0.00917974 0.00919058 0.00956067 0.00879873 0.0111264 0.0107388 0.0103538 0.0107468 0.0106661 0.0107203 0.0107284 0.0111021 0.0103294 0.00846859 0.00846664 0.0084641 0.0084615 0.00845814 0.00845464 0.00845015 0.00807644 0.00769145 0.00730651 0.00692164 0.00653682 0.00769393 0.00769631 0.00769818 0.00808145 0.00654112 0.00692614 0.0073112 0.00692395 0.0069279 0.00768101 0.00768506 0.00768834 0.00806979 0.00653132 0.00691583 0.00730039 0.00691228 0.00691882 0.0111582 0.0107729 0.0103875 0.0100023 0.00961698 0.00923179 0.0088466 0.010005 0.0100077 0.0100098 0.010393 0.0107784 0.0111638 0.0107756 0.0107805 0.00923445 0.00923712 0.00923912 0.00962239 0.00885185 0.00998978 0.00999487 0.00999852 0.0107602 0.0107653 0.010769 0.0111507 0.0103801 0.00883955 0.00922459 0.00960968 0.00921974 0.00922821 0.00655131 0.00693673 0.00732215 0.00770758 0.00809301 0.00847845 0.00886389 0.00924934 0.00963479 0.0100203 0.0104057 0.0107912 0.0111767 0.00847784 0.00847725 0.00847643 0.00847562 0.00847452 0.00847343 0.00847197 0.00809024 0.00770488 0.00731952 0.00693418 0.00654885 0.00770565 0.00770644 0.007707 0.00809184 0.00693492 0.00693565 0.00693619 0.00732104 0.00655027 0.0077014 0.00770278 0.00770383 0.00808809 0.00693092 0.00693221 0.0069332 0.00731748 0.00654695 0.0100196 0.010019 0.0100181 0.0100172 0.0100161 0.0100149 0.0100134 0.00963182 0.00924641 0.00886101 0.00924725 0.0092481 0.00924871 0.00963353 0.00886267 0.00924263 0.00924415 0.00924527 0.00962952 0.00885877 0.0111736 0.0107881 0.0104027 0.010789 0.0107899 0.0107905 0.0111754 0.0104044 0.0107842 0.0107858 0.0107869 0.0111712 0.0104003 0.00848022 0.00848018 0.00848001 0.00847986 0.00847957 0.0084793 0.00847886 0.00809439 0.00770893 0.00732346 0.006938 0.00655254 0.00770907 0.00770923 0.00770927 0.0080947 0.00693813 0.00693829 0.00693832 0.00732376 0.00655281 0.00770797 0.00770839 0.00770865 0.00809384 0.00655205 0.00693749 0.00732294 0.0069371 0.00693774 0.0100221 0.0100221 0.0100219 0.0100218 0.0100214 0.0100212 0.0100207 0.00963628 0.0092508 0.00886533 0.00925096 0.00925114 0.00925118 0.00963662 0.00886566 0.00924977 0.00925022 0.0092505 0.00963568 0.00886475 0.0111782 0.0107927 0.0104072 0.0107929 0.0107931 0.0107931 0.0111786 0.0104076 0.0107916 0.0107921 0.0107924 0.0111776 0.0104066 0.000384872 0.000769747 0.00115463 0.00153951 0.0019244 0.00230931 0.00269422 0.00307915 0.00346409 0.00384906 0.00423403 0.00461904 0.00500406 0.00538912 0.00577419 0.00307833 0.00307746 0.00307645 0.00307538 0.00307417 0.00307291 0.00307157 0.0030702 0.00306887 0.00306756 0.00306648 0.00306551 0.00306501 0.00268877 0.00230464 0.00192052 0.00153641 0.0011523 0.0007682 0.000384099 0.00153703 0.00153762 0.00153815 0.00153866 0.0015391 0.00192204 0.00230647 0.00269092 0.00230558 0.00192334 0.00230803 0.00269274 0.00230727 0.00230869 0.000384399 0.000768801 0.00115321 0.000768506 0.000384659 0.000769321 0.00115399 0.000769067 0.00076954 0.00268417 0.00230076 0.00191733 0.00153389 0.00115043 0.000766956 0.00038348 0.00153449 0.00153511 0.00153577 0.00191889 0.00230266 0.00268643 0.0023017 0.00230366 0.000767252 0.000767558 0.000767881 0.00115134 0.00038378 0.00153273 0.00153295 0.00153339 0.00191616 0.00229931 0.00268244 0.00229896 0.0023 0.000766392 0.000766502 0.000766716 0.00114974 0.000383255 0.00576251 0.00537819 0.0049939 0.00460965 0.00422543 0.00384124 0.00345707 0.0046116 0.00461345 0.00461505 0.00461657 0.00461784 0.00499804 0.00538267 0.00576734 0.00538049 0.00500141 0.00538629 0.00577119 0.00538453 0.00538774 0.00345986 0.00384436 0.00422889 0.00384284 0.00384804 0.00384697 0.0038457 0.0034622 0.