<?xml version="1.0"?>
<VTKFile byte_order="LittleEndian" type="UnstructuredGrid" version="0.1">
<UnstructuredGrid>
<Piece NumberOfCells="900" NumberOfPoints="2821">
<PointData>
</PointData>
<CellData>
<DataArray Name="MaterialId" format="ascii" type="Float64">
1 1 1 1 1 1 1 1 1 1 1 1 1 1 1 1 1 1 1 1 1 1 1 1 1 1 1 1 1 1 1 1 1 1 1 1 1 1 1 1 1 1 1 1 1 1 1 1 1 1 1 1 1 1 1 1 1 1 1 1 1 1 1 1 1 1 1 1 1 1 1 1 1 1 1 1 1 1 1 1 1 1 1 1 1 1 1 1 1 1 1 1 1 1 1 1 1 1 1 1 1 1 1 1 1 1 1 1 1 1 1 1 1 1 1 1 1 1 1 1 1 1 1 1 1 1 1 1 1 1 1 1 1 1 1 1 1 1 1 1 1 1 1 1 1 1 1 1 1 1 1 1 1 1 1 1 1 1 1 1 1 1 1 1 1 1 1 1 1 1 1 1 1 1 1 1 1 1 1 1 1 1 1 1 1 1 1 1 1 1 1 1 1 1 1 1 1 1 1 1 1 1 1 1 1 1 1 1 1 1 1 1 1 1 1 1 1 1 1 1 1 1 1 1 1 1 1 1 1 1 1 1 1 1 1 1 1 1 1 1 1 1 1 1 1 1 1 1 1 1 1 1 1 1 1 1 1 1 1 1 1 1 1 1 1 1 1 1 1 1 1 1 1 1 1 1 1 1 1 1 1 1 1 1 1 1 1 1 1 1 1 1 1 1 1 1 1 1 1 1 1 1 1 1 1 1 1 1 1 1 1 1 1 1 1 1 1 1 1 1 1 1 1 1 1 1 1 1 1 1 1 1 1 1 1 1 1 1 1 1 1 1 1 1 1 1 1 1 1 1 1 1 1 1 1 1 1 1 1 1 1 1 1 1 1 1 1 1 1 1 1 1 1 1 1 1 1 1 1 1 1 1 1 1 1 1 1 1 1 1 1 1 1 1 1 1 1 1 1 1 1 1 1 1 1 1 1 1 1 1 1 1 1 1 1 1 1 1 1 1 1 1 1 1 1 1 1 1 1 1 1 1 1 1 1 1 1 1 1 1 1 1 1 1 1 1 1 1 1 1 1 1 1 1 1 1 1 1 1 1 1 1 1 1 1 1 1 1 1 1 1 1 1 1 1 1 1 1 1 1 1 1 1 1 1 1 1 1 1 1 1 1 1 1 1 1 1 1 1 1 1 1 1 1 1 1 1 1 1 1 1 1 1 1 1 1 1 1 1 1 1 1 1 1 1 1 1 1 1 1 1 1 1 1 1 1 1 1 1 1 1 1 1 1 1 1 1 1 1 1 1 1 1 1 1 1 1 1 1 1 1 1 1 1 1 1 1 1 1 1 1 1 1 1 1 1 1 1 1 1 1 1 1 1 1 1 1 1 1 1 1 1 1 1 1 1 1 1 1 1 1 1 1 1 1 1 1 1 1 1 1 1 1 1 1 1 1 1 1 1 1 1 1 1 1 1 1 1 1 1 1 1 1 1 1 1 1 1 1 1 1 1 1 1 1 1 1 1 1 1 1 1 1 1 1 1 1 1 1 1 1 1 1 1 1 1 1 1 1 1 1 1 1 1 1 1 1 1 1 1 1 1 1 1 1 1 1 1 1 1 1 1 1 1 1 1 1 1 1 1 1 1 1 1 1 1 1 1 1 1 1 1 1 1 1 1 1 1 1 1 1 1 1 1 1 1 1 1 1 1 1 1 1 1 1 1 1 1 1 1 1 1 1 1 1 1 1 1 1 1 1 1 1 1 1 1 1 1 1 1 1 1 1 1 1 1 1 1 1 1 1 1 1 1 1 1 1 1 1 1 1 1 1 1 1 1 1 1 1 1 1 1 1 1 1 1 1 1 1 1 1 1 1 1 1 1 1 1 1 1 1 1 1 1 1 1 1 1 1 1 1 1 1 1 1 1 1 1 1 1 1 1 1 1 1 1 1 1 1 1 1 1 1 1 1 1 1 1 1 1 1 1 1 1 1 1 1 1 1 1 1 1 1 1 1 1 1 1 1 1 1 1 1 1 1 1 1 1 1 1 1 1 1 1 1 1 1 1 1 1 1 1 1 1 1 1 1 1 1 1 
</DataArray>
<DataArray Name="FiberAngle" format="ascii" type="Float64">
0 0 0 0 0 0 0 0 0 0 0 0 0 0 0 0 0 0 0 0 0 0 0 0 0 0 0 0 0 0 0 0 0 0 0 0 0 0 0 0 0 0 0 0 0 0 0 0 0 0 0 0 0 0 0 0 0 0 0 0 0 0 0 0 0 0 0 0 0 0 0 0 0 0 0 0 0 0 0 0 0 0 0 0 0 0 0 0 0 0 0 0 0 0 0 0 0 0 0 0 0 0 0 0 0 0 0 0 0 0 0 0 0 0 0 0 0 0 0 0 0 0 0 0 0 0 0 0 0 0 0 0 0 0 0 0 0 0 0 0 0 0 0 0 0 0 0 0 0 0 0 0 0 0 0 0 0 0 0 0 0 0 0 0 0 0 0 0 0 0 0 0 0 0 0 0 0 0 0 0 0 0 0 0 0 0 0 0 0 0 0 0 0 0 0 0 0 0 0 0 0 0 0 0 0 0 0 0 0 0 0 0 0 0 0 0 0 0 0 0 0 0 0 0 0 0 0 0 0 0 0 0 0 0 0 0 0 0 0 0 0 0 0 0 0 0 0 0 0 0 0 0 0 0 0 0 0 0 0 0 0 0 0 0 0 0 0 0 0 0 0 0 0 0 0 0 0 0 0 0 0 0 0 0 0 0 0 0 0 0 0 0 0 0 0 0 0 0 0 0 0 0 0 0 0 0 0 0 0 0 0 0 0 0 0 0 0 0 0 0 0 0 0 0 0 0 0 0 0 0 0 0 0 0 0 0 0 0 0 0 0 0 0 0 0 0 0 0 0 0 0 0 0 0 0 0 0 0 0 0 0 0 0 0 0 0 0 0 0 0 0 0 0 0 0 0 0 0 0 0 0 0 0 0 0 0 0 0 0 0 0 0 0 0 0 0 0 0 0 0 0 0 0 0 0 0 0 0 0 0 0 0 0 0 0 0 0 0 0 0 0 0 0 0 0 0 0 0 0 0 0 0 0 0 0 0 0 0 0 0 0 0 0 0 0 0 0 0 0 0 0 0 0 0 0 0 0 0 0 0 0 0 0 0 0 0 0 0 0 0 0 0 0 0 0 0 0 0 0 0 0 0 0 0 0 0 0 0 0 0 0 0 0 0 0 0 0 0 0 0 0 0 0 0 0 0 0 0 0 0 0 0 0 0 0 0 0 0 0 0 0 0 0 0 0 0 0 0 0 0 0 0 0 0 0 0 0 0 0 0 0 0 0 0 0 0 0 0 0 0 0 0 0 0 0 0 0 0 0 0 0 0 0 0 0 0 0 0 0 0 0 0 0 0 0 0 0 0 0 0 0 0 0 0 0 0 0 0 0 0 0 0 0 0 0 0 0 0 0 0 0 0 0 0 0 0 0 0 0 0 0 0 0 0 0 0 0 0 0 0 0 0 0 0 0 0 0 0 0 0 0 0 0 0 0 0 0 0 0 0 0 0 0 0 0 0 0 0 0 0 0 0 0 0 0 0 0 0 0 0 0 0 0 0 0 0 0 0 0 0 0 0 0 0 0 0 0 0 0 0 0 0 0 0 0 0 0 0 0 0 0 0 0 0 0 0 0 0 0 0 0 0 0 0 0 0 0 0 0 0 0 0 0 0 0 0 0 0 0 0 0 0 0 0 0 0 0 0 0 0 0 0 0 0 0 0 0 0 0 0 0 0 0 0 0 0 0 0 0 0 0 0 0 0 0 0 0 0 0 0 0 0 0 0 0 0 0 0 0 0 0 0 0 0 0 0 0 0 0 0 0 0 0 0 0 0 0 0 0 0 0 0 0 0 0 0 0 0 0 0 0 0 0 0 0 0 0 0 0 0 0 0 0 0 0 0 0 0 0 0 0 0 0 0 0 0 0 0 0 0 0 0 0 0 0 0 0 0 0 0 0 0 0 0 0 0 0 0 0 0 0 0 0 0 0 0 0 0 0 0 0 0 0 0 0 0 0 0 0 0 0 0 0 0 0 0 0 0 0 0 0 0 0 0 0 0 0 0 0 0 0 0 0 0 0 0 0 0 0 0 
</DataArray>
</CellData>
<Points>
<DataArray NumberOfComponents="3" format="ascii" type="Float64">
-0.05 -0.05 0 -0.0483333 -0.05 0 -0.0466667 -0.05 0 -0.045 -0.05 0 -0.0433333 -0.05 0 -0.0416667 -0.05 0 -0.04 -0.05 0 -0.0383333 -0.05 0 -0.0366667 -0.05 0 -0.035 -0.05 0 -0.0333333 -0.05 0 -0.0316667 -0.05 0 -0.03 -0.05 0 -0.0283333 -0.05 0 -0.0266667 -0.05 0 -0.025 -0.05 0 -0.0233333 -0.05 0 -0.0216667 -0.05 0 -0.02 -0.05 0 -0.0183333 -0.05 0 -0.0166667 -0.05 0 -0.015 -0.05 0 -0.0133333 -0.05 0 -0.0116667 -0.05 0 -0.01 -0.05 0 -0.00833333 -0.05 0 -0.00666667 -0.05 0 -0.005 -0.05 0 -0.00333333 -0.05 0 -0.00166667 -0.05 0 0 -0.05 0 0.00166667 -0.05 0 0.00333333 -0.05 0 0.005 -0.05 0 0.00666667 -0.05 0 0.00833333 -0.05 0 0.01 -0.05 0 0.0116667 -0.05 0 0.0133333 -0.05 0 0.015 -0.05 0 0.0166667 -0.05 0 0.0183333 -0.05 0 0.02 -0.05 0 0.0216667 -0.05 0 0.0233333 -0.05 0 0.025 -0.05 0 0.0266667 -0.05 0 0.0283333 -0.05 0 0.03 -0.05 0 0.0316667 -0.05 0 0.0333333 -0.05 0 0.035 -0.05 0 0.0366667 -0.05 0 0.0383333 -0.05 0 0.04 -0.05 0 0.0416667 -0.05 0 0.0433333 -0.05 0 0.045 -0.05 0 0.0466667 -0.05 0 0.0483333 -0.05 0 0.05 -0.05 0 0.05 -0.0483333 0 0.05 -0.0466667 0 0.05 -0.045 0 0.05 -0.0433333 0 0.05 -0.0416667 0 0.05 -0.04 0 0.05 -0.0383333 0 0.05 -0.0366667 0 0.05 -0.035 0 0.05 -0.0333333 0 0.05 -0.0316667 0 0.05 -0.03 0 0.05 -0.0283333 0 0.05 -0.0266667 0 0.05 -0.025 0 0.05 -0.0233333 0 0.05 -0.0216667 0 0.05 -0.02 0 0.05 -0.0183333 0 0.05 -0.0166667 0 0.05 -0.015 0 0.05 -0.0133333 0 0.05 -0.0116667 0 0.05 -0.01 0 0.05 -0.00833333 0 0.05 -0.00666667 0 0.05 -0.005 0 0.05 -0.00333333 0 0.05 -0.00166667 0 0.05 0 0 0.05 0.00166667 0 0.05 0.00333333 0 0.05 0.005 0 0.05 0.00666667 0 0.05 0.00833333 0 0.05 0.01 0 0.05 0.0116667 0 0.05 0.0133333 0 0.05 0.015 0 0.05 0.0166667 0 0.05 0.0183333 0 0.05 0.02 0 0.05 0.0216667 0 0.05 0.0233333 0 0.05 0.025 0 0.05 0.0266667 0 0.05 0.0283333 0 0.05 0.03 0 0.05 0.0316667 0 0.05 0.0333333 0 0.05 0.035 0 0.05 0.0366667 0 0.05 0.0383333 0 0.05 0.04 0 0.05 0.0416667 0 0.05 0.0433333 0 0.05 0.045 0 0.05 0.0466667 0 0.05 0.0483333 0 0.05 0.05 0 0.0483333 0.05 0 0.0466667 0.05 0 0.045 0.05 0 0.0433333 0.05 0 0.0416667 0.05 0 0.04 0.05 0 0.0383333 0.05 0 0.0366667 0.05 0 0.035 0.05 0 0.0333333 0.05 0 0.0316667 0.05 0 0.03 0.05 0 0.0283333 0.05 0 0.0266667 0.05 0 0.025 0.05 0 0.0233333 0.05 0 0.0216667 0.05 0 0.02 0.05 0 0.0183333 0.05 0 0.0166667 0.05 0 0.015 0.05 0 0.0133333 0.05 0 0.0116667 0.05 0 0.01 0.05 0 0.00833333 0.05 0 0.00666667 0.05 0 0.005 0.05 0 0.00333333 0.05 0 0.00166667 0.05 0 0 0.05 0 -0.00166667 0.05 0 -0.00333333 0.05 0 -0.005 0.05 0 -0.00666667 0.05 0 -0.00833333 0.05 0 -0.01 0.05 0 -0.0116667 0.05 0 -0.0133333 0.05 0 -0.015 0.05 0 -0.0166667 0.05 0 -0.0183333 0.05 0 -0.02 0.05 0 -0.0216667 0.05 0 -0.0233333 0.05 0 -0.025 0.05 0 -0.0266667 0.05 0 -0.0283333 0.05 0 -0.03 0.05 0 -0.0316667 0.05 0 -0.0333333 0.05 0 -0.035 0.05 0 -0.0366667 0.05 0 -0.0383333 0.05 0 -0.04 0.05 0 -0.0416667 0.05 0 -0.0433333 0.05 0 -0.045 0.05 0 -0.0466667 0.05 0 -0.0483333 0.05 0 -0.05 0.05 0 -0.05 0.0483333 0 -0.05 0.0466667 0 -0.05 0.045 0 -0.05 0.0433333 0 -0.05 0.0416667 0 -0.05 0.04 0 -0.05 0.0383333 0 -0.05 0.0366667 0 -0.05 0.035 0 -0.05 0.0333333 0 -0.05 0.0316667 0 -0.05 0.03 0 -0.05 0.0283333 0 -0.05 0.0266667 0 -0.05 0.025 0 -0.05 0.0233333 0 -0.05 0.0216667 0 -0.05 0.02 0 -0.05 0.0183333 0 -0.05 0.0166667 0 -0.05 0.015 0 -0.05 0.0133333 0 -0.05 0.0116667 0 -0.05 0.01 0 -0.05 0.00833333 0 -0.05 0.00666667 0 -0.05 0.005 0 -0.05 0.00333333 0 -0.05 0.00166667 0 -0.05 0 0 -0.05 -0.00166667 0 -0.05 -0.00333333 0 -0.05 -0.005 0 -0.05 -0.00666667 0 -0.05 -0.00833333 0 -0.05 -0.01 0 -0.05 -0.0116667 0 -0.05 -0.0133333 0 -0.05 -0.015 0 -0.05 -0.0166667 0 -0.05 -0.0183333 0 -0.05 -0.02 0 -0.05 -0.0216667 0 -0.05 -0.0233333 0 -0.05 -0.025 0 -0.05 -0.0266667 0 -0.05 -0.0283333 0 -0.05 -0.03 0 -0.05 -0.0316667 0 -0.05 -0.0333333 0 -0.05 -0.035 0 -0.05 -0.0366667 0 -0.05 -0.0383333 0 -0.05 -0.04 0 -0.05 -0.0416667 0 -0.05 -0.0433333 0 -0.05 -0.045 0 -0.05 -0.0466667 0 -0.05 -0.0483333 0 7.45058e-10 0.0483333 0 7.45058e-10 0.0466667 0 7.45058e-10 0.045 0 7.45058e-10 0.0433333 0 7.45058e-10 0.0416667 0 7.45058e-10 0.04 0 7.45058e-10 0.0383333 0 7.45058e-10 0.0366667 0 7.45058e-10 0.035 0 7.45058e-10 0.0333333 0 7.45058e-10 0.0316667 0 7.45058e-10 0.03 0 7.45058e-10 0.0283333 0 7.45058e-10 0.0266667 0 7.45058e-10 0.025 0 7.45058e-10 0.0233333 0 7.45058e-10 0.0216667 0 7.45058e-10 0.02 0 7.45058e-10 0.0183333 0 7.45058e-10 0.0166667 0 7.45058e-10 0.015 0 7.45058e-10 0.0133333 0 7.45058e-10 0.0116667 0 7.45058e-10 0.01 0 7.45058e-10 0.00833333 0 7.45058e-10 0.00666667 0 7.45058e-10 0.005 0 7.45058e-10 0.00333333 0 7.45058e-10 0.00166667 0 7.45058e-10 7.45058e-10 0 7.45058e-10 -0.00166667 0 7.45058e-10 -0.00333333 0 7.45058e-10 -0.005 0 7.45058e-10 -0.00666667 0 7.45058e-10 -0.00833333 0 7.45058e-10 -0.01 0 7.45058e-10 -0.0116667 0 7.45058e-10 -0.0133333 0 7.45058e-10 -0.015 0 7.45058e-10 -0.0166667 0 7.45058e-10 -0.0183333 0 7.45058e-10 -0.02 0 7.45058e-10 -0.0216667 0 7.45058e-10 -0.0233333 0 7.45058e-10 -0.025 0 7.45058e-10 -0.0266667 0 7.45058e-10 -0.0283333 0 7.45058e-10 -0.03 0 7.45058e-10 -0.0316667 0 7.45058e-10 -0.0333333 0 7.45058e-10 -0.035 0 7.45058e-10 -0.0366667 0 7.45058e-10 -0.0383333 0 7.45058e-10 -0.04 0 7.45058e-10 -0.0416667 0 7.45058e-10 -0.0433333 0 7.45058e-10 -0.045 0 7.45058e-10 -0.0466667 0 7.45058e-10 -0.0483333 0 0.00166667 7.45058e-10 0 0.00333333 7.45058e-10 0 0.005 7.45058e-10 0 0.00666667 7.45058e-10 0 0.00833333 7.45058e-10 0 0.01 7.45058e-10 0 0.0116667 7.45058e-10 0 0.0133333 7.45058e-10 0 0.015 7.45058e-10 0 0.0166667 7.45058e-10 0 0.0183333 7.45058e-10 0 0.02 7.45058e-10 0 0.0216667 7.45058e-10 0 0.0233333 7.45058e-10 0 0.025 7.45058e-10 0 0.0266667 7.45058e-10 0 0.0283333 7.45058e-10 0 0.03 7.45058e-10 0 0.0316667 7.45058e-10 0 0.0333333 7.45058e-10 0 0.035 7.45058e-10 0 0.0366667 7.45058e-10 0 0.0383333 7.45058e-10 0 0.04 7.45058e-10 0 0.0416667 7.45058e-10 0 0.0433333 7.45058e-10 0 0.045 7.45058e-10 0 0.0466667 7.45058e-10 0 0.0483333 7.45058e-10 0 0.0233333 0.00166667 0 0.0233333 0.00333333 0 0.0233333 0.005 0 0.0233333 0.00666667 0 0.0233333 0.00833333 0 0.0233333 0.01 0 0.0233333 0.0116667 0 0.0233333 0.0133333 0 0.0233333 0.015 0 0.0233333 0.0166667 0 0.0233333 0.0183333 0 0.0233333 0.02 0 0.0233333 0.0216667 0 0.0233333 0.0233333 0 0.0233333 0.025 0 0.0233333 0.0266667 0 0.0233333 0.0283333 0 0.0233333 0.03 0 0.0233333 0.0316667 0 0.0233333 0.0333333 0 0.0233333 0.035 0 0.0233333 0.0366667 0 0.0233333 0.0383333 0 0.0233333 0.04 0 0.0233333 0.0416667 0 0.0233333 0.0433333 0 0.0233333 0.045 0 0.0233333 0.0466667 0 0.0233333 0.0483333 0 0.0216667 0.0233333 0 0.02 0.0233333 0 0.0183333 0.0233333 0 0.0166667 0.0233333 0 0.015 0.0233333 0 0.0133333 0.0233333 0 0.0116667 0.0233333 0 0.01 0.0233333 0 0.00833333 0.0233333 0 0.00666667 0.0233333 0 0.005 0.0233333 0 0.00333333 0.0233333 0 0.00166667 0.0233333 0 0.0133333 0.0216667 0 0.0133333 0.02 0 0.0133333 0.0183333 0 0.0133333 0.0166667 0 0.0133333 0.015 0 0.0133333 0.0133333 0 0.0133333 0.0116667 0 0.0133333 0.01 0 0.0133333 0.00833333 0 0.0133333 0.00666667 0 0.0133333 0.005 0 0.0133333 0.00333333 0 0.0133333 0.00166667 0 0.015 0.0133333 0 0.0166667 0.0133333 0 0.0183333 0.0133333 0 0.02 0.0133333 0 0.0216667 0.0133333 0 0.015 0.02 0 0.0166667 0.02 0 0.0183333 0.02 0 0.02 0.02 0 0.0216667 0.02 0 0.0166667 0.0216667 0 0.02 0.0216667 0 0.0166667 0.015 0 0.0166667 0.0166667 0 0.0166667 0.0183333 0 0.015 0.0166667 0 0.0216667 0.0166667 0 0.02 0.0166667 0 0.0183333 0.0166667 0 0.02 0.015 0 0.02 0.0183333 0 0.015 0.00666667 0 0.0166667 0.00666667 0 0.0183333 0.00666667 0 0.02 0.00666667 0 0.0216667 0.00666667 0 0.0166667 0.00833333 0 0.0166667 0.01 0 0.0166667 0.0116667 0 0.015 0.01 0 0.0216667 0.01 0 0.02 0.01 0 0.0183333 0.01 0 0.02 0.00833333 0 0.02 0.0116667 0 0.0166667 0.00166667 0 0.0166667 0.00333333 0 0.0166667 0.005 0 0.015 0.00333333 0 0.0216667 0.00333333 0 0.02 0.00333333 0 0.0183333 0.00333333 0 0.02 0.00166667 0 0.02 0.005 0 0.00166667 0.0133333 0 0.00333333 0.0133333 0 0.005 0.0133333 0 0.00666667 0.0133333 0 0.00833333 0.0133333 0 0.01 0.0133333 0 0.0116667 0.0133333 0 0.00666667 0.015 0 0.00666667 0.0166667 0 0.00666667 0.0183333 0 0.00666667 0.02 0 0.00666667 0.0216667 0 0.005 0.0166667 0 0.00333333 0.0166667 0 0.00166667 0.0166667 0 0.00333333 0.015 0 0.005 0.02 0 0.00333333 0.02 0 0.00166667 0.02 0 0.00333333 0.0183333 0 0.00333333 0.0216667 0 0.0116667 0.0166667 0 0.01 0.0166667 0 0.00833333 0.0166667 0 0.01 0.015 0 0.0116667 0.02 0 0.01 0.02 0 0.00833333 0.02 0 0.01 0.0183333 0 0.01 0.0216667 0 0.00166667 0.00666667 0 0.00333333 0.00666667 0 0.005 0.00666667 0 0.00666667 0.00666667 0 0.00833333 0.00666667 0 0.01 0.00666667 0 0.0116667 0.00666667 0 0.00666667 0.00833333 0 0.00666667 0.01 0 0.00666667 0.0116667 0 0.005 0.01 0 0.00333333 0.01 0 0.00166667 0.01 0 0.00333333 0.00833333 0 0.00333333 0.0116667 0 0.0116667 0.01 0 0.01 0.01 0 0.00833333 0.01 0 0.01 0.00833333 0 0.01 0.0116667 0 0.00666667 0.00166667 0 0.00666667 0.00333333 0 0.00666667 0.005 0 0.005 0.00333333 0 0.00333333 0.00333333 0 0.00166667 0.00333333 0 0.00333333 0.00166667 0 0.00333333 0.005 0 0.01 0.00166667 0 0.01 0.00333333 0 0.01 0.005 0 0.00833333 0.00333333 0 0.0116667 0.00333333 0 0.0216667 0.0366667 0 0.02 0.0366667 0 0.0183333 0.0366667 0 0.0166667 0.0366667 0 0.015 0.0366667 0 0.0133333 0.0366667 0 0.0116667 0.0366667 0 0.01 0.0366667 0 0.00833333 0.0366667 0 0.00666667 0.0366667 0 0.005 0.0366667 0 0.00333333 0.0366667 0 0.00166667 0.0366667 0 0.0133333 0.035 0 0.0133333 0.0333333 0 0.0133333 0.0316667 0 0.0133333 0.03 0 0.0133333 0.0283333 0 0.0133333 0.0266667 0 0.0133333 0.025 0 0.015 0.03 0 0.0166667 0.03 0 0.0183333 0.03 0 0.02 0.03 0 0.0216667 0.03 0 0.0166667 0.0316667 0 0.0166667 0.0333333 0 0.0166667 0.035 0 0.015 0.0333333 0 0.0216667 0.0333333 0 0.02 0.0333333 0 0.0183333 0.0333333 0 0.02 0.0316667 0 0.02 0.035 0 0.0166667 0.025 0 0.0166667 0.0266667 0 0.0166667 0.0283333 0 0.015 0.0266667 0 0.02 0.025 0 0.02 0.0266667 0 0.02 0.0283333 0 0.0183333 0.0266667 0 0.0216667 0.0266667 0 0.00666667 0.035 0 0.00666667 0.0333333 0 0.00666667 0.0316667 0 0.00666667 0.03 0 0.00666667 0.0283333 0 0.00666667 0.0266667 0 0.00666667 0.025 0 0.00833333 0.03 0 0.01 0.03 0 0.0116667 0.03 0 0.00833333 0.0333333 0 0.01 0.0333333 0 0.0116667 0.0333333 0 0.01 0.035 0 0.01 0.0316667 0 0.00833333 0.0266667 0 0.01 0.0266667 0 0.0116667 0.0266667 0 0.01 0.0283333 0 0.01 0.025 0 0.00166667 0.03 0 0.00333333 0.03 0 0.005 0.03 0 0.00333333 0.0316667 0 0.00333333 0.0333333 0 0.00333333 0.035 0 0.00166667 0.0333333 0 0.005 0.0333333 0 0.00333333 0.025 0 0.00333333 0.0266667 0 0.00333333 0.0283333 0 0.00166667 0.0266667 0 0.005 0.0266667 0 0.0133333 0.0483333 0 0.0133333 0.0466667 0 0.0133333 0.045 0 0.0133333 0.0433333 0 0.0133333 0.0416667 0 0.0133333 0.04 0 0.0133333 0.0383333 0 0.015 0.0433333 0 0.0166667 0.0433333 0 0.0183333 0.0433333 0 0.02 0.0433333 0 0.0216667 0.0433333 0 0.0166667 0.045 0 0.0166667 0.0466667 0 0.0166667 0.0483333 0 0.015 0.0466667 0 0.0216667 0.0466667 0 0.02 0.0466667 0 0.0183333 0.0466667 0 0.02 0.045 0 0.02 0.0483333 0 0.0166667 0.0383333 0 0.0166667 0.04 0 0.0166667 0.0416667 0 0.015 0.04 0 0.0216667 0.04 0 0.02 0.04 0 0.0183333 0.04 0 0.02 0.0383333 0 0.02 0.0416667 0 0.00166667 0.0433333 0 0.00333333 0.0433333 0 0.005 0.0433333 0 0.00666667 0.0433333 0 0.00833333 0.0433333 0 0.01 0.0433333 0 0.0116667 0.0433333 0 0.00666667 0.045 0 0.00666667 0.0466667 0 0.00666667 0.0483333 0 0.005 0.0466667 0 0.00333333 0.0466667 0 0.00166667 0.0466667 0 0.00333333 0.045 0 0.00333333 0.0483333 0 0.0116667 0.0466667 0 0.01 0.0466667 0 0.00833333 0.0466667 0 0.01 0.045 0 0.01 0.0483333 0 0.00666667 0.0383333 0 0.00666667 0.04 0 0.00666667 0.0416667 0 0.005 0.04 0 0.00333333 0.04 0 0.00166667 0.04 0 0.00333333 0.0383333 0 0.00333333 0.0416667 0 0.01 0.0383333 0 0.01 0.04 0 0.01 0.0416667 0 0.00833333 0.04 0 0.0116667 0.04 0 0.0483333 0.0233333 0 0.0466667 0.0233333 0 0.045 0.0233333 0 0.0433333 0.0233333 0 0.0416667 0.0233333 0 0.04 0.0233333 0 0.0383333 0.0233333 0 0.0366667 0.0233333 0 0.035 0.0233333 0 0.0333333 0.0233333 0 0.0316667 0.0233333 0 0.03 0.0233333 0 0.0283333 0.0233333 0 0.0266667 0.0233333 0 0.025 0.0233333 0 0.0366667 0.0216667 0 0.0366667 0.02 0 0.0366667 0.0183333 0 0.0366667 0.0166667 0 0.0366667 0.015 0 0.0366667 0.0133333 0 0.0366667 0.0116667 0 0.0366667 0.01 0 0.0366667 0.00833333 0 0.0366667 0.00666667 0 0.0366667 0.005 0 0.0366667 0.00333333 0 0.0366667 0.00166667 0 0.0383333 0.0133333 0 0.04 0.0133333 0 0.0416667 0.0133333 0 0.0433333 0.0133333 0 0.045 0.0133333 0 0.0466667 0.0133333 0 0.0483333 0.0133333 0 0.0433333 0.015 0 0.0433333 0.0166667 0 0.0433333 0.0183333 0 0.0433333 0.02 0 0.0433333 0.0216667 0 0.0416667 0.0166667 0 0.04 0.0166667 0 0.0383333 0.0166667 0 0.04 0.015 0 0.04 0.0216667 0 0.04 0.02 0 0.04 0.0183333 0 0.0416667 0.02 0 0.0383333 0.02 0 0.0483333 0.0166667 0 0.0466667 0.0166667 0 0.045 0.0166667 0 0.0466667 0.015 0 0.0466667 0.0216667 0 0.0466667 0.02 0 0.0466667 0.0183333 0 0.0483333 0.02 0 0.045 0.02 0 0.0433333 0.00166667 0 0.0433333 0.00333333 0 0.0433333 0.005 0 0.0433333 0.00666667 0 0.0433333 0.00833333 0 0.0433333 0.01 0 0.0433333 0.0116667 0 0.0416667 0.00666667 0 0.04 0.00666667 0 0.0383333 0.00666667 0 0.0416667 0.00333333 0 0.04 0.00333333 0 0.0383333 0.00333333 0 0.04 0.00166667 0 0.04 0.005 0 0.0416667 0.01 0 0.04 0.01 0 0.0383333 0.01 0 0.04 0.00833333 0 0.04 0.0116667 0 0.0483333 0.00666667 0 0.0466667 0.00666667 0 0.045 0.00666667 0 0.0483333 0.00333333 0 0.0466667 0.00333333 0 0.045 0.00333333 0 0.0466667 0.00166667 0 0.0466667 0.005 0 0.0483333 0.01 0 0.0466667 0.01 0 0.045 0.01 0 0.0466667 0.00833333 0 0.0466667 0.0116667 0 0.025 0.0133333 0 0.0266667 0.0133333 0 0.0283333 0.0133333 0 0.03 0.0133333 0 0.0316667 0.0133333 0 0.0333333 0.0133333 0 0.035 0.0133333 0 0.03 0.015 0 0.03 0.0166667 0 0.03 0.0183333 0 0.03 0.02 0 0.03 0.0216667 0 0.0283333 0.0166667 0 0.0266667 0.0166667 0 0.025 0.0166667 0 0.0266667 0.015 0 0.0283333 0.02 0 0.0266667 0.02 0 0.025 0.02 0 0.0266667 0.0183333 0 0.0266667 0.0216667 0 0.035 0.0166667 0 0.0333333 0.0166667 0 0.0316667 0.0166667 0 0.0333333 0.015 0 0.0333333 0.0216667 0 0.0333333 0.02 0 0.0333333 0.0183333 0 0.035 0.02 0 0.0316667 0.02 0 0.025 0.00666667 0 0.0266667 0.00666667 0 0.0283333 0.00666667 0 0.03 0.00666667 0 0.0316667 0.00666667 0 0.0333333 0.00666667 0 0.035 0.00666667 0 0.03 0.00833333 0 0.03 0.01 0 0.03 0.0116667 0 0.0266667 0.00833333 0 0.0266667 0.01 0 0.0266667 0.0116667 0 0.025 0.01 0 0.0283333 0.01 0 0.035 0.01 0 0.0333333 0.01 0 0.0316667 0.01 0 0.0333333 0.00833333 0 0.0333333 0.0116667 0 0.03 0.00166667 0 0.03 0.00333333 0 0.03 0.005 0 0.0283333 0.00333333 0 0.0266667 0.00333333 0 0.025 0.00333333 0 0.0266667 0.00166667 0 0.0266667 0.005 0 0.035 0.00333333 0 0.0333333 0.00333333 0 0.0316667 0.00333333 0 0.0333333 0.00166667 0 0.0333333 0.005 0 0.0366667 0.0483333 0 0.0366667 0.0466667 0 0.0366667 0.045 0 0.0366667 0.0433333 0 0.0366667 0.0416667 0 0.0366667 0.04 0 0.0366667 0.0383333 0 0.0366667 0.0366667 0 0.0366667 0.035 0 0.0366667 0.0333333 0 0.0366667 0.0316667 0 0.0366667 0.03 0 0.0366667 0.0283333 0 0.0366667 0.0266667 0 0.0366667 0.025 0 0.0383333 0.0366667 0 0.04 0.0366667 0 0.0416667 0.0366667 0 0.0433333 0.0366667 0 0.045 0.0366667 0 0.0466667 0.0366667 0 0.0483333 0.0366667 0 0.0433333 0.0383333 0 0.0433333 0.04 0 0.0433333 0.0416667 0 0.0433333 0.0433333 0 0.0433333 0.045 0 0.0433333 0.0466667 0 0.0433333 0.0483333 0 0.0416667 0.0433333 0 0.04 0.0433333 0 0.0383333 0.0433333 0 0.04 0.0416667 0 0.04 0.04 0 0.04 0.0383333 0 0.0416667 0.04 0 0.0383333 0.04 0 0.0416667 0.0466667 0 0.04 0.0466667 0 0.0383333 0.0466667 0 0.04 0.045 0 0.04 0.0483333 0 0.0483333 0.0433333 0 0.0466667 0.0433333 0 0.045 0.0433333 0 0.0466667 0.0416667 0 0.0466667 0.04 0 0.0466667 0.0383333 0 0.0483333 0.04 0 0.045 0.04 0 0.0483333 0.0466667 0 0.0466667 0.0466667 0 0.045 0.0466667 0 0.0466667 0.045 0 0.0466667 0.0483333 0 0.0433333 0.025 0 0.0433333 0.0266667 0 0.0433333 0.0283333 0 0.0433333 0.03 0 0.0433333 0.0316667 0 0.0433333 0.0333333 0 0.0433333 0.035 0 0.0416667 0.03 0 0.04 0.03 0 0.0383333 0.03 0 0.04 0.0283333 0 0.04 0.0266667 0 0.04 0.025 0 0.0416667 0.0266667 0 0.0383333 0.0266667 0 0.04 0.035 0 0.04 0.0333333 0 0.04 0.0316667 0 0.0416667 0.0333333 0 0.0383333 0.0333333 0 0.0483333 0.03 0 0.0466667 0.03 0 0.045 0.03 0 0.0483333 0.0266667 0 0.0466667 0.0266667 0 0.045 0.0266667 0 0.0466667 0.025 0 0.0466667 0.0283333 0 0.0466667 0.035 0 0.0466667 0.0333333 0 0.0466667 0.0316667 0 0.0483333 0.0333333 0 0.045 0.0333333 0 0.025 0.0366667 0 0.0266667 0.0366667 0 0.0283333 0.0366667 0 0.03 0.0366667 0 0.0316667 0.0366667 0 0.0333333 0.0366667 0 0.035 0.0366667 0 0.025 0.0433333 0 0.0266667 0.0433333 0 0.0283333 0.0433333 0 0.03 0.0433333 0 0.0316667 0.0433333 0 0.0333333 0.0433333 0 0.035 0.0433333 0 0.03 0.045 0 0.03 0.0466667 0 0.03 0.0483333 0 0.0283333 0.0466667 0 0.0266667 0.0466667 0 0.025 0.0466667 0 0.0266667 0.045 0 0.0266667 0.0483333 0 0.035 0.0466667 0 0.0333333 0.0466667 0 0.0316667 0.0466667 0 0.0333333 0.045 0 0.0333333 0.0483333 0 0.03 0.0383333 0 0.03 0.04 0 0.03 0.0416667 0 0.0283333 0.04 0 0.0266667 0.04 0 0.025 0.04 0 0.0266667 0.0383333 0 0.0266667 0.0416667 0 0.035 0.04 0 0.0333333 0.04 0 0.0316667 0.04 0 0.0333333 0.0383333 0 0.0333333 0.0416667 0 0.03 0.025 0 0.03 0.0266667 0 0.03 0.0283333 0 0.03 0.03 0 0.03 0.0316667 0 0.03 0.0333333 0 0.03 0.035 0 0.0283333 0.03 0 0.0266667 0.03 0 0.025 0.03 0 0.0266667 0.0283333 0 0.0266667 0.0266667 0 0.0266667 0.025 0 0.0283333 0.0266667 0 0.025 0.0266667 0 0.0283333 0.0333333 0 0.0266667 0.0333333 0 0.025 0.0333333 0 0.0266667 0.0316667 0 0.0266667 0.035 0 0.035 0.03 0 0.0333333 0.03 0 0.0316667 0.03 0 0.0333333 0.0283333 0 0.0333333 0.0266667 0 0.0333333 0.025 0 0.035 0.0266667 0 0.0316667 0.0266667 0 0.0333333 0.035 0 0.0333333 0.0333333 0 0.0333333 0.0316667 0 0.035 0.0333333 0 0.0316667 0.0333333 0 0.0233333 -0.0483333 0 0.0233333 -0.0466667 0 0.0233333 -0.045 0 0.0233333 -0.0433333 0 0.0233333 -0.0416667 0 0.0233333 -0.04 0 0.0233333 -0.0383333 0 0.0233333 -0.0366667 0 0.0233333 -0.035 0 0.0233333 -0.0333333 0 0.0233333 -0.0316667 0 0.0233333 -0.03 0 0.0233333 -0.0283333 0 0.0233333 -0.0266667 0 0.0233333 -0.025 0 0.0233333 -0.0233333 0 0.0233333 -0.0216667 0 0.0233333 -0.02 0 0.0233333 -0.0183333 0 0.0233333 -0.0166667 0 0.0233333 -0.015 0 0.0233333 -0.0133333 0 0.0233333 -0.0116667 0 0.0233333 -0.01 0 0.0233333 -0.00833333 0 0.0233333 -0.00666667 0 0.0233333 -0.005 0 0.0233333 -0.00333333 0 0.0233333 -0.00166667 0 0.0216667 -0.0266667 0 0.02 -0.0266667 0 0.0183333 -0.0266667 0 0.0166667 -0.0266667 0 0.015 -0.0266667 0 0.0133333 -0.0266667 0 0.0116667 -0.0266667 0 0.01 -0.0266667 0 0.00833333 -0.0266667 0 0.00666667 -0.0266667 0 0.005 -0.0266667 0 0.00333333 -0.0266667 0 0.00166667 -0.0266667 0 0.0133333 -0.0283333 0 0.0133333 -0.03 0 0.0133333 -0.0316667 0 0.0133333 -0.0333333 0 0.0133333 -0.035 0 0.0133333 -0.0366667 0 0.0133333 -0.0383333 0 0.0133333 -0.04 0 0.0133333 -0.0416667 0 0.0133333 -0.0433333 0 0.0133333 -0.045 0 0.0133333 -0.0466667 0 0.0133333 -0.0483333 0 0.015 -0.0366667 0 0.0166667 -0.0366667 0 0.0183333 -0.0366667 0 0.02 -0.0366667 0 0.0216667 -0.0366667 0 0.015 -0.03 0 0.0166667 -0.03 0 0.0183333 -0.03 0 0.02 -0.03 0 0.0216667 -0.03 0 0.0166667 -0.0283333 0 0.02 -0.0283333 0 0.0166667 -0.035 0 0.0166667 -0.0333333 0 0.0166667 -0.0316667 0 0.015 -0.0333333 0 0.02 -0.035 0 0.02 -0.0333333 0 0.02 -0.0316667 0 0.0183333 -0.0333333 0 0.0216667 -0.0333333 0 0.015 -0.0433333 0 0.0166667 -0.0433333 0 0.0183333 -0.0433333 0 0.02 -0.0433333 0 0.0216667 -0.0433333 0 0.0166667 -0.0416667 0 0.0166667 -0.04 0 0.0166667 -0.0383333 0 0.015 -0.04 0 0.0216667 -0.04 0 0.02 -0.04 0 0.0183333 -0.04 0 0.02 -0.0416667 0 0.02 -0.0383333 0 0.0166667 -0.0483333 0 0.0166667 -0.0466667 0 0.0166667 -0.045 0 0.015 -0.0466667 0 0.0216667 -0.0466667 0 0.02 -0.0466667 0 0.0183333 -0.0466667 0 0.02 -0.0483333 0 0.02 -0.045 0 0.00166667 -0.0366667 0 0.00333333 -0.0366667 0 0.005 -0.0366667 0 0.00666667 -0.0366667 0 0.00833333 -0.0366667 0 0.01 -0.0366667 0 0.0116667 -0.0366667 0 0.00666667 -0.035 0 0.00666667 -0.0333333 0 0.00666667 -0.0316667 0 0.00666667 -0.03 0 0.00666667 -0.0283333 0 0.005 -0.0333333 0 0.00333333 -0.0333333 0 0.00166667 -0.0333333 0 0.00333333 -0.035 0 0.00333333 -0.0283333 0 0.00333333 -0.03 0 0.00333333 -0.0316667 0 0.005 -0.03 0 0.00166667 -0.03 0 0.0116667 -0.0333333 0 0.01 -0.0333333 0 0.00833333 -0.0333333 0 0.01 -0.035 0 0.01 -0.0283333 0 0.01 -0.03 0 0.01 -0.0316667 0 0.0116667 -0.03 0 0.00833333 -0.03 0 0.00166667 -0.0433333 0 0.00333333 -0.0433333 0 0.005 -0.0433333 0 0.00666667 -0.0433333 0 0.00833333 -0.0433333 0 0.01 -0.0433333 0 0.0116667 -0.0433333 0 0.00666667 -0.0416667 0 0.00666667 -0.04 0 0.00666667 -0.0383333 0 0.005 -0.04 0 0.00333333 -0.04 0 0.00166667 -0.04 0 0.00333333 -0.0416667 0 0.00333333 -0.0383333 0 0.0116667 -0.04 0 0.01 -0.04 0 0.00833333 -0.04 0 0.01 -0.0416667 0 0.01 -0.0383333 0 0.00666667 -0.0483333 0 0.00666667 -0.0466667 0 0.00666667 -0.045 0 0.00333333 -0.0483333 0 0.00333333 -0.0466667 0 0.00333333 -0.045 0 0.00166667 -0.0466667 0 0.005 -0.0466667 0 0.01 -0.0483333 0 0.01 -0.0466667 0 0.01 -0.045 0 0.00833333 -0.0466667 0 0.0116667 -0.0466667 0 0.0216667 -0.0133333 0 0.02 -0.0133333 0 0.0183333 -0.0133333 0 0.0166667 -0.0133333 0 0.015 -0.0133333 0 0.0133333 -0.0133333 0 0.0116667 -0.0133333 0 0.01 -0.0133333 0 0.00833333 -0.0133333 0 0.00666667 -0.0133333 0 0.005 -0.0133333 0 0.00333333 -0.0133333 0 0.00166667 -0.0133333 0 0.0133333 -0.015 0 0.0133333 -0.0166667 0 0.0133333 -0.0183333 0 0.0133333 -0.02 0 0.0133333 -0.0216667 0 0.0133333 -0.0233333 0 0.0133333 -0.025 0 0.015 -0.02 0 0.0166667 -0.02 0 0.0183333 -0.02 0 0.02 -0.02 0 0.0216667 -0.02 0 0.0166667 -0.0183333 0 0.0166667 -0.0166667 0 0.0166667 -0.015 0 0.015 -0.0166667 0 0.02 -0.0183333 0 0.02 -0.0166667 0 0.02 -0.015 0 0.0183333 -0.0166667 0 0.0216667 -0.0166667 0 0.0166667 -0.025 0 0.0166667 -0.0233333 0 0.0166667 -0.0216667 0 0.015 -0.0233333 0 0.02 -0.025 0 0.02 -0.0233333 0 0.02 -0.0216667 0 0.0183333 -0.0233333 0 0.0216667 -0.0233333 0 0.00666667 -0.015 0 0.00666667 -0.0166667 0 0.00666667 -0.0183333 0 0.00666667 -0.02 0 0.00666667 -0.0216667 0 0.00666667 -0.0233333 0 0.00666667 -0.025 0 0.00833333 -0.02 0 0.01 -0.02 0 0.0116667 -0.02 0 0.01 -0.0183333 0 0.01 -0.0166667 0 0.01 -0.015 0 0.00833333 -0.0166667 0 0.0116667 -0.0166667 0 0.01 -0.025 0 0.01 -0.0233333 0 0.01 -0.0216667 0 0.00833333 -0.0233333 0 0.0116667 -0.0233333 0 0.00166667 -0.02 0 0.00333333 -0.02 0 0.005 -0.02 0 0.00333333 -0.0183333 0 0.00333333 -0.0166667 0 0.00333333 -0.015 0 0.00166667 -0.0166667 0 0.005 -0.0166667 0 0.00166667 -0.0233333 0 0.00333333 -0.0233333 0 0.005 -0.0233333 0 0.00333333 -0.0216667 0 0.00333333 -0.025 0 0.0133333 -0.00166667 0 0.0133333 -0.00333333 0 0.0133333 -0.005 0 0.0133333 -0.00666667 0 0.0133333 -0.00833333 0 0.0133333 -0.01 0 0.0133333 -0.0116667 0 0.015 -0.00666667 0 0.0166667 -0.00666667 0 0.0183333 -0.00666667 0 0.02 -0.00666667 0 0.0216667 -0.00666667 0 0.0166667 -0.005 0 0.0166667 -0.00333333 0 0.0166667 -0.00166667 0 0.015 -0.00333333 0 0.0216667 -0.00333333 0 0.02 -0.00333333 0 0.0183333 -0.00333333 0 0.02 -0.005 0 0.02 -0.00166667 0 0.0166667 -0.0116667 0 0.0166667 -0.01 0 0.0166667 -0.00833333 0 0.015 -0.01 0 0.0216667 -0.01 0 0.02 -0.01 0 0.0183333 -0.01 0 0.02 -0.0116667 0 0.02 -0.00833333 0 0.00666667 -0.00166667 0 0.00666667 -0.00333333 0 0.00666667 -0.005 0 0.00666667 -0.00666667 0 0.00666667 -0.00833333 0 0.00666667 -0.01 0 0.00666667 -0.0116667 0 0.00833333 -0.00666667 0 0.01 -0.00666667 0 0.0116667 -0.00666667 0 0.01 -0.005 0 0.01 -0.00333333 0 0.01 -0.00166667 0 0.00833333 -0.00333333 0 0.0116667 -0.00333333 0 0.01 -0.0116667 0 0.01 -0.01 0 0.01 -0.00833333 0 0.00833333 -0.01 0 0.0116667 -0.01 0 0.00166667 -0.00666667 0 0.00333333 -0.00666667 0 0.005 -0.00666667 0 0.00333333 -0.005 0 0.00333333 -0.00333333 0 0.00333333 -0.00166667 0 0.00166667 -0.00333333 0 0.005 -0.00333333 0 0.00333333 -0.0116667 0 0.00333333 -0.01 0 0.00333333 -0.00833333 0 0.00166667 -0.01 0 0.005 -0.01 0 0.0483333 -0.0266667 0 0.0466667 -0.0266667 0 0.045 -0.0266667 0 0.0433333 -0.0266667 0 0.0416667 -0.0266667 0 0.04 -0.0266667 0 0.0383333 -0.0266667 0 0.0366667 -0.0266667 0 0.035 -0.0266667 0 0.0333333 -0.0266667 0 0.0316667 -0.0266667 0 0.03 -0.0266667 0 0.0283333 -0.0266667 0 0.0266667 -0.0266667 0 0.025 -0.0266667 0 0.0366667 -0.0283333 0 0.0366667 -0.03 0 0.0366667 -0.0316667 0 0.0366667 -0.0333333 0 0.0366667 -0.035 0 0.0366667 -0.0366667 0 0.0366667 -0.0383333 0 0.0366667 -0.04 0 0.0366667 -0.0416667 0 0.0366667 -0.0433333 0 0.0366667 -0.045 0 0.0366667 -0.0466667 0 0.0366667 -0.0483333 0 0.0383333 -0.0366667 0 0.04 -0.0366667 0 0.0416667 -0.0366667 0 0.0433333 -0.0366667 0 0.045 -0.0366667 0 0.0466667 -0.0366667 0 0.0483333 -0.0366667 0 0.0433333 -0.035 0 0.0433333 -0.0333333 0 0.0433333 -0.0316667 0 0.0433333 -0.03 0 0.0433333 -0.0283333 0 0.0416667 -0.0333333 0 0.04 -0.0333333 0 0.0383333 -0.0333333 0 0.04 -0.035 0 0.0416667 -0.03 0 0.04 -0.03 0 0.0383333 -0.03 0 0.04 -0.0316667 0 0.04 -0.0283333 0 0.0483333 -0.0333333 0 0.0466667 -0.0333333 0 0.045 -0.0333333 0 0.0466667 -0.035 0 0.0466667 -0.0283333 0 0.0466667 -0.03 0 0.0466667 -0.0316667 0 0.0483333 -0.03 0 0.045 -0.03 0 0.0433333 -0.0483333 0 0.0433333 -0.0466667 0 0.0433333 -0.045 0 0.0433333 -0.0433333 0 0.0433333 -0.0416667 0 0.0433333 -0.04 0 0.0433333 -0.0383333 0 0.0416667 -0.0433333 0 0.04 -0.0433333 0 0.0383333 -0.0433333 0 0.0416667 -0.0466667 0 0.04 -0.0466667 0 0.0383333 -0.0466667 0 0.04 -0.0483333 0 0.04 -0.045 0 0.04 -0.0383333 0 0.04 -0.04 0 0.04 -0.0416667 0 0.0416667 -0.04 0 0.0383333 -0.04 0 0.0483333 -0.0433333 0 0.0466667 -0.0433333 0 0.045 -0.0433333 0 0.0466667 -0.045 0 0.0466667 -0.0466667 0 0.0466667 