<?xml version="1.0"?>
<VTKFile byte_order="LittleEndian" type="UnstructuredGrid" version="0.1">
<UnstructuredGrid>
<Piece NumberOfCells="900" NumberOfPoints="2821">
<PointData>
<DataArray Name="Warping_X" format="ascii" type="Float64">
0.16961 0.154743 0.138589 0.117299 0.097583 0.0771074 0.0589545 0.0393632 0.0226337 0.00429012 -0.0108432 -0.027818 -0.0413185 -0.05685 -0.0686976 -0.0827394 -0.0929265 -0.105446 -0.11397 -0.124942 -0.131805 -0.14121 -0.146415 -0.154237 -0.157788 -0.164014 -0.165917 -0.170534 -0.170796 -0.173796 -0.172423 -0.173796 -0.170796 -0.170534 -0.165917 -0.164014 -0.157788 -0.154237 -0.146415 -0.14121 -0.131805 -0.124942 -0.11397 -0.105446 -0.0929265 -0.0827393 -0.0686976 -0.05685 -0.0413185 -0.027818 -0.0108432 0.00429015 0.0226337 0.0393632 0.0589545 0.0771074 0.0975831 0.117299 0.138589 0.154744 0.16961 0.18659 0.192393 0.195203 0.199391 0.203422 0.207464 0.211158 0.214891 0.218315 0.221752 0.224834 0.22793 0.230669 0.233418 0.235811 0.238213 0.240267 0.242328 0.244048 0.245775 0.247169 0.248571 0.249646 0.250729 0.251492 0.252261 0.252716 0.253177 0.253326 0.253482 0.253326 0.253177 0.252716 0.252261 0.251492 0.250729 0.249646 0.248571 0.247169 0.245775 0.244048 0.242328 0.240267 0.238213 0.235811 0.233418 0.230669 0.22793 0.224834 0.221752 0.218315 0.214891 0.211158 0.207464 0.203422 0.199391 0.195203 0.192393 0.18659 0.16961 0.154744 0.138589 0.117299 0.0975831 0.0771074 0.0589545 0.0393632 0.0226337 0.00429016 -0.0108432 -0.027818 -0.0413185 -0.05685 -0.0686976 -0.0827393 -0.0929265 -0.105446 -0.11397 -0.124942 -0.131805 -0.14121 -0.146415 -0.154237 -0.157788 -0.164014 -0.165917 -0.170534 -0.170796 -0.173796 -0.172423 -0.173796 -0.170796 -0.170534 -0.165917 -0.164014 -0.157788 -0.154237 -0.146415 -0.14121 -0.131805 -0.124942 -0.11397 -0.105446 -0.0929265 -0.0827394 -0.0686976 -0.05685 -0.0413185 -0.027818 -0.0108432 0.00429012 0.0226337 0.0393632 0.0589545 0.0771074 0.097583 0.117299 0.138589 0.154743 0.16961 0.18659 0.192393 0.195203 0.199391 0.203422 0.207464 0.211158 0.214891 0.218315 0.221752 0.224834 0.22793 0.230669 0.233418 0.235811 0.238213 0.240267 0.242328 0.244048 0.245775 0.247169 0.248571 0.249646 0.250729 0.251492 0.252261 0.252716 0.253177 0.253326 0.253482 0.253326 0.253177 0.252716 0.252261 0.251492 0.250729 0.249646 0.248571 0.247169 0.245775 0.244048 0.242328 0.240267 0.238213 0.235811 0.233418 0.230669 0.22793 0.224834 0.221752 0.218315 0.214891 0.211158 0.207464 0.203422 0.199391 0.195203 0.192393 0.18659 -0.167481 -0.162343 -0.156855 -0.151005 -0.146604 -0.141836 -0.138006 -0.133803 -0.130527 -0.126878 -0.124063 -0.120879 -0.118472 -0.115706 -0.113667 -0.111278 -0.109576 -0.107535 -0.106148 -0.104432 -0.103343 -0.101933 -0.101132 -0.100015 -0.0994906 -0.098657 -0.098405 -0.0978472 -0.0978647 -0.0975781 -0.0978647 -0.0978472 -0.098405 -0.098657 -0.0994906 -0.100015 -0.101132 -0.101933 -0.103343 -0.104432 -0.106148 -0.107535 -0.109576 -0.111278 -0.113667 -0.115706 -0.118472 -0.120879 -0.124063 -0.126878 -0.130527 -0.133803 -0.138006 -0.141836 -0.146604 -0.151005 -0.156855 -0.162343 -0.167481 -0.0972074 -0.0960354 -0.0941217 -0.0914064 -0.0879484 -0.0836883 -0.0786837 -0.0728761 -0.0663219 -0.0589634 -0.0508553 -0.0419414 -0.0322744 -0.0217998 -0.0105678 0.00147397 0.0142779 0.0278939 0.0422775 0.057476 0.0734479 0.0902377 0.107807 0.126198 0.145376 0.165377 0.186173 0.207796 0.230223 -0.0220545 -0.0220771 -0.0226112 -0.0229113 -0.0237286 -0.0243084 -0.0254151 -0.0262787 -0.0276831 -0.028837 -0.0305497 -0.0320024 -0.0340366 -0.0357992 -0.038171 -0.0402573 -0.0429857 -0.0454127 -0.0485223 -0.0513124 -0.0548284 -0.058005 -0.0619824 -0.0655999 -0.0700128 -0.0740481 -0.0793256 -0.0842046 -0.0886873 -0.0462309 -0.0558542 -0.0647338 -0.0728065 -0.0801387 -0.0866651 -0.0924537 -0.0974372 -0.101685 -0.105128 -0.107836 -0.109741 -0.110912 -0.0849458 -0.0829081 -0.0815014 -0.0797867 -0.078678 -0.0772703 -0.0764488 -0.0753356 -0.0747935 -0.0739654 -0.0736978 -0.0731479 -0.0731523 -0.0707275 -0.0633801 -0.0552863 -0.0463864 -0.0367364 -0.0763767 -0.06904 -0.0609606 -0.0520747 -0.0424426 -0.0710762 -0.0541097 -0.0647867 -0.0659075 -0.0676213 -0.0732495 -0.0392862 -0.0489276 -0.0578206 -0.0477919 -0.0506407 -0.0674142 -0.0600586 -0.0519543 -0.0430441 -0.0333815 -0.0608838 -0.061436 -0.0625473 -0.068788 -0.0347732 -0.0444304 -0.0533361 -0.0438656 -0.0455396 -0.0592337 -0.0592366 -0.0597822 -0.0665944 -0.0325507 -0.0422166 -0.0511295 -0.0422046 -0.0427568 -0.101564 -0.100393 -0.0984832 -0.0957713 -0.0923195 -0.0880652 -0.0830694 -0.0971806 -0.0982739 -0.09999 -0.101382 -0.103422 -0.100984 -0.102892 -0.104063 -0.101803 -0.104091 -0.105997 -0.107167 -0.104609 -0.108038 -0.0855819 -0.0905734 -0.0948251 -0.0894738 -0.0886995 -0.0936867 -0.0979359 -0.0922889 -0.0957258 -0.0982866 -0.0971149 -0.0952022 -0.0924878 -0.0890315 -0.0847729 -0.0797707 -0.0933201 -0.0938487 -0.0949645 -0.0965619 -0.0984735 -0.0996448 -0.0979482 -0.09959 -0.0811382 -0.0861376 -0.0903943 -0.0856034 -0.0872523 -0.0916904 -0.0916762 -0.092232 -0.0943912 -0.0963047 -0.0974766 -0.0963214 -0.096862 -0.083969 -0.0839588 -0.0845122 -0.0882186 -0.0789549 -0.0684677 -0.0781077 -0.0870264 -0.0951207 -0.102495 -0.109043 -0.114872 -0.119874 -0.124157 -0.127612 -0.130348 -0.132255 -0.133444 -0.105809 -0.102211 -0.0994106 -0.0962562 -0.0938478 -0.0910974 -0.0890462 -0.0897317 -0.0823981 -0.0743299 -0.0654523 -0.0558375 -0.0855384 -0.0883331 -0.0919064 -0.0956764 -0.0617443 -0.071368 -0.0802547 -0.0685773 -0.0749132 -0.0751842 -0.0772436 -0.0799867 -0.0845739 -0.0582286 -0.0602995 -0.0630351 -0.0691753 -0.0506827 -0.124347 -0.120712 -0.117901 -0.114725 -0.112318 -0.109557 -0.107514 -0.111282 -0.107031 -0.102048 -0.117262 -0.113004 -0.108012 -0.116623 -0.110197 -0.106115 -0.101867 -0.0968853 -0.104624 -0.0998213 -0.120514 -0.119341 -0.117437 -0.122522 -0.125337 -0.128982 -0.126513 -0.123429 -0.112129 -0.114169 -0.116934 -0.115341 -0.112266 -0.141696 -0.136768 -0.131483 -0.125826 -0.121555 -0.116913 -0.113164 -0.119269 -0.111684 -0.103561 -0.09442 -0.0847381 -0.117235 -0.122406 -0.127214 -0.1296 -0.0945709 -0.104879 -0.113663 -0.0998435 -0.109538 -0.0991988 -0.102907 -0.107482 -0.110298 -0.0760866 -0.0858007 -0.0947411 -0.0821372 -0.0902985 -0.15074 -0.14943 -0.14759 -0.144706 -0.141291 -0.136836 -0.131848 -0.150507 -0.155945 -0.16103 -0.158343 -0.160743 -0.161541 -0.155268 -0.165868 -0.142366 -0.147951 -0.15195 -0.142577 -0.152971 -0.131794 -0.135603 -0.140338 -0.13833 -0.140278 -0.141447 -0.136453 -0.145037 -0.12403 -0.127814 -0.132509 -0.132097 -0.122752 0.215047 0.192715 0.171186 0.150486 0.130577 0.111492 0.0931886 0.0757064 0.0589967 0.0431048 0.0279777 0.0136654 0.000111325 -0.0126306 -0.0246199 0.0775866 0.0796261 0.0811919 0.0829076 0.0841662 0.0855673 0.086525 0.0876199 0.0882818 0.0890772 0.0894471 0.089948 0.0900279 0.103107 0.121469 0.140616 0.160587 0.181352 0.202945 0.225341 0.159188 0.157861 0.156142 0.154499 0.152452 0.137906 0.118777 0.100431 0.120068 0.113413 0.115456 0.117059 0.134565 0.0971303 0.222563 0.200183 0.178608 0.201548 0.194728 0.196779 0.198464 0.219136 0.175224 0.165196 0.16508 0.1646 0.164187 0.163406 0.162692 0.161605 0.144193 0.125023 0.106639 0.14508 0.125905 0.107516 0.126002 0.125414 0.142707 0.123547 0.105173 0.124234 0.122456 0.22901 0.206591 0.184975 0.229921 0.207495 0.185874 0.207631 0.207028 0.227487 0.205077 0.18347 0.205818 0.203995 -0.0150667 -0.00304483 0.00973626 0.0233296 0.0376878 0.0528609 0.0688051 0.021927 0.0207271 0.0190139 0.0175123 0.0154773 0.00714563 -0.00562353 -0.0176352 -0.00444825 0.00394426 -0.00881148 -0.0208119 -0.00733626 -0.0108456 0.0661604 0.0502313 0.0350717 0.0514591 0.0449484 0.0469852 0.0485171 0.0628966 0.0318412 -0.0116845 0.000352116 0.0131501 0.0267604 0.0411375 0.0563295 0.0722944 0.025953 0.0253364 0.0242351 -0.000460505 -0.00105755 -0.00216163 -0.0130879 0.0117333 0.0708457 0.0548895 0.0397055 0.0555279 0.0537913 0.0276595 0.027611 0.0270919 0.0139964 0.00119399 -0.0108464 0.00122879 0.000667006 0.07316 0.0571898 0.041993 0.0572534 0.0566794 0.0257854 0.0293415 0.0335607 0.0382039 0.0419628 0.0460507 0.0495638 0.0533538 0.0565368 0.0599598 0.0628182 0.065887 0.0684152 0.0711318 0.0733332 0.0707546 0.0889758 0.107951 0.127748 0.148313 0.169699 0.191887 0.124008 0.120446 0.11642 0.112618 0.108283 0.104039 0.100564 0.0928052 0.0739043 0.0555877 0.0776441 0.0816903 0.0852156 0.100676 0.0634828 0.0844726 0.0652257 0.0471781 0.069372 0.0618205 0.176667 0.154462 0.133118 0.158329 0.162351 0.165977 0.184466 0.140995 0.16856 0.146566 0.12502 0.150327 0.141264 0.148103 0.14581 0.143084 0.140458 0.137387 0.134431 0.131019 0.120605 0.101576 0.0833218 0.10415 0.106869 0.109115 0.125927 0.0885903 0.092194 0.0956073 0.0985087 0.114609 0.0773759 0.204829 0.182561 0.161095 0.210281 0.187979 0.16648 0.190327 0.185247 0.173047 0.176463 0.179485 0.198689 0.155034 -0.0468191 -0.0348121 -0.022079 -0.00852619 0.00575685 0.020859 0.0366968 -0.0628132 -0.0505833 -0.0378031 -0.0240429 -0.00972478 0.00555703 0.0214066 -0.0289938 -0.0335211 -0.037568 -0.0470157 -0.0604077 -0.0723456 -0.0557009 -0.0646854 0.0127957 -0.00358741 -0.0186191 0.000768375 -0.00738612 -0.0124002 -0.0159396 -0.0201768 -0.0295104 -0.0423113 -0.0543411 -0.0387367 -0.0466357 0.0293964 0.0135135 -0.00159802 0.0170303 0.00935645 0.0112959 0.00916377 0.00644573 0.00398269 0.000899643 -0.0019067 -0.00536795 -0.00955033 -0.0222713 -0.0342474 -0.0198294 -0.017107 -0.0150005 -0.00437755 -0.0290872 -0.0154383 -0.0281611 -0.0401409 -0.0253665 -0.0316485 0.0492167 0.0333629 0.0182658 0.0358545 0.0385705 0.0407342 0.0544426 0.0234601 0.0240226 0.0274619 0.030289 0.0433048 0.0123725 -0.0886873 -0.0842046 -0.0793256 -0.0740481 -0.0700128 -0.0655999 -0.0619824 -0.058005 -0.0548284 -0.0513124 -0.0485223 -0.0454127 -0.0429857 -0.0402573 -0.038171 -0.0357992 -0.0340366 -0.0320024 -0.0305497 -0.028837 -0.0276831 -0.0262787 -0.0254151 -0.0243084 -0.0237286 -0.0229113 -0.0226112 -0.0220771 -0.0220545 -0.0506827 -0.0602995 -0.0691753 -0.0772436 -0.0845739 -0.0910974 -0.0968853 -0.101867 -0.106115 -0.109557 -0.112266 -0.114169 -0.115341 -0.0938478 -0.0962562 -0.0994106 -0.102211 -0.105809 -0.109043 -0.113164 -0.116913 -0.121555 -0.125826 -0.131483 -0.136768 -0.141696 -0.102495 -0.0951207 -0.0870264 -0.0781077 -0.0684677 -0.0897317 -0.0823981 -0.0743299 -0.0654523 -0.0558375 -0.0799867 -0.0630351 -0.0919064 -0.0883331 -0.0855384 -0.0956764 -0.0749132 -0.071368 -0.0685773 -0.0802547 -0.0617443 -0.119269 -0.111684 -0.103561 -0.09442 -0.0847381 -0.107482 -0.102907 -0.0991988 -0.110298 -0.0760866 -0.0858007 -0.0947411 -0.0902985 -0.0821372 -0.127214 -0.122406 -0.117235 -0.1296 -0.0945709 -0.104879 -0.113663 -0.109539 -0.0998435 -0.133444 -0.132255 -0.130348 -0.127612 -0.124157 -0.119874 -0.114872 -0.124347 -0.120712 -0.117901 -0.114725 -0.112318 -0.123429 -0.125337 -0.126513 -0.128982 -0.116934 -0.119341 -0.122522 -0.117437 -0.120514 -0.108012 -0.113004 -0.117262 -0.116623 -0.104624 -0.107031 -0.110197 -0.102048 -0.111282 -0.15074 -0.14943 -0.14759 -0.144706 -0.141291 -0.136836 -0.131848 -0.140338 -0.135603 -0.131794 -0.13833 -0.140278 -0.141447 -0.145037 -0.136453 -0.122752 -0.127814 -0.132097 -0.132509 -0.12403 -0.16103 -0.155945 -0.150507 -0.165868 -0.160743 -0.155268 -0.161541 -0.158343 -0.152971 -0.147951 -0.142577 -0.15195 -0.142366 -0.0367364 -0.0463864 -0.0552863 -0.0633801 -0.0707275 -0.0772703 -0.0830694 -0.0880652 -0.0923195 -0.0957713 -0.0984832 -0.100393 -0.101564 -0.078678 -0.0797867 -0.0815014 -0.0829081 -0.0849458 -0.0866651 -0.0890462 -0.0763767 -0.06904 -0.0609606 -0.0520747 -0.0424426 -0.0676213 -0.0659075 -0.0647867 -0.0732495 -0.0506407 -0.0489276 -0.0477919 -0.0578206 -0.0392862 -0.0751842 -0.0728065 -0.0710762 -0.0801387 -0.0582286 -0.0558542 -0.0541096 -0.0647338 -0.0462309 -0.0971806 -0.0982739 -0.09999 -0.101382 -0.103422 -0.105128 -0.107514 -0.0979359 -0.0936867 -0.0886995 -0.0922889 -0.0905734 -0.0894738 -0.0948251 -0.0855819 -0.0998213 -0.0974372 -0.0957258 -0.101685 -0.0924537 -0.107167 -0.105997 -0.104091 -0.104609 -0.102892 -0.101803 -0.104063 -0.100984 -0.110912 -0.109741 -0.107836 -0.108038 -0.112129 -0.0731523 -0.0731479 -0.0736978 -0.0739654 -0.0747935 -0.0753356 -0.0764488 -0.0674142 -0.0600586 -0.0519543 -0.0430441 -0.0333815 -0.0597822 -0.0592366 -0.0592337 -0.0665944 -0.0325506 -0.0422166 -0.0511295 -0.0427568 -0.0422046 -0.0625473 -0.061436 -0.0608838 -0.068788 -0.0347732 -0.0444304 -0.0533361 -0.0455396 -0.0438656 -0.0916904 -0.0916762 -0.092232 -0.0924878 -0.0933201 -0.0938487 -0.0949645 -0.0890315 -0.0847729 -0.0797707 -0.0845122 -0.0839588 -0.083969 -0.0882186 -0.0789549 -0.0872523 -0.0861376 -0.0856034 -0.0903943 -0.0811382 -0.0982866 -0.0971149 -0.0952022 -0.096862 -0.0963047 -0.0963214 -0.0974766 -0.0943912 -0.09959 -0.0984735 -0.0979482 -0.0996448 -0.0965619 0.210281 0.187979 0.16648 0.14581 0.125927 0.106869 0.0885903 0.0711318 0.0544426 0.0385705 0.0234601 0.00916378 -0.00437754 -0.017107 -0.0290872 0.0684152 0.065887 0.0628182 0.0599598 0.0565368 0.0533538 0.0495638 0.0460507 0.0419628 0.0382039 0.0335607 0.0293415 0.0257854 0.0707546 0.0889758 0.107951 0.127748 0.148313 0.169699 0.191887 0.131019 0.134431 0.137387 0.140458 0.143084 0.114609 0.0956073 0.0773759 0.092194 0.120605 0.101576 0.0833218 0.0985087 0.10415 0.198689 0.176463 0.155034 0.173047 0.185247 0.182561 0.179485 0.204829 0.161095 0.100564 0.104039 0.108283 0.112618 0.11642 0.120446 0.124008 0.0928052 0.0739043 0.0555877 0.0844726 0.0652257 0.0471781 0.0618205 0.069372 0.0852156 0.0816903 0.0776441 0.100676 0.0634828 0.176667 0.154462 0.133118 0.150327 0.146566 0.141264 0.16856 0.12502 0.165977 0.162351 0.158329 0.184466 0.140995 -0.0468191 -0.0348121 -0.022079 -0.00852618 0.00575686 0.020859 0.0366968 -0.00536794 -0.00190669 0.000899646 0.00398269 0.00644573 -0.0154383 -0.0281611 -0.0401409 -0.0316485 -0.00955032 -0.0222713 -0.0342474 -0.0253665 -0.0198294 0.0433048 0.0274619 0.0123725 0.0240226 0.0492167 0.0333629 0.0182658 0.030289 0.0358545 -0.0628132 -0.0505833 -0.0378031 -0.0240429 -0.00972478 0.00555703 0.0214066 -0.0201768 -0.0159396 -0.0124002 -0.0295104 -0.0423113 -0.0543411 -0.0466357 -0.0387367 0.0293964 0.0135135 -0.00159802 0.00935645 0.0170303 -0.037568 -0.0335211 -0.0289938 -0.0646854 -0.0604077 -0.0557009 -0.0723456 -0.0470157 0.0127957 -0.00358741 -0.0186191 -0.00738612 0.000768376 0.225341 0.202945 0.181352 0.160587 0.140616 0.121469 0.103107 0.0855673 0.0688051 0.0528609 0.0376878 0.0233296 0.00973626 -0.00304483 -0.0150667 0.0841662 0.0829076 0.0811919 0.0796261 0.0775866 0.0757064 0.0733332 0.159188 0.157861 0.156142 0.154499 0.152452 0.150486 0.148103 0.175224 0.196779 0.219136 0.198464 0.200183 0.201548 0.178608 0.222563 0.190327 0.192715 0.194728 0.171186 0.215047 0.0971303 0.115456 0.134565 0.117059 0.118777 0.120068 0.100431 0.137906 0.0931886 0.111492 0.130577 0.113413 0.109115 -0.0208119 -0.00881148 0.00394426 0.0175123 0.0318412 0.0469852 0.0628966 0.0190139 0.0207271 0.021927 0.00714563 -0.00562353 -0.0176352 -0.00733626 -0.00444825 0.0661604 0.0502313 0.0350717 0.0485171 0.0514591 0.0112959 0.0136654 0.0154773 -0.0150005 -0.0126306 -0.0108456 -0.0246199 0.000111327 0.0589967 0.0431048 0.0279777 0.0407342 0.0449485 0.0900279 0.089948 0.0894471 0.0890772 0.0882818 0.0876199 0.086525 0.165196 0.16508 0.1646 0.164187 0.163406 0.162692 0.161605 0.184975 0.206591 0.22901 0.207028 0.207495 0.207631 0.185874 0.229921 0.203995 0.205077 0.205818 0.18347 0.227487 0.106639 0.125023 0.144193 0.107516 0.125905 0.14508 0.126002 0.125414 0.122456 0.123547 0.124234 0.105173 0.142707 -0.0116845 0.000352117 0.0131501 0.0267604 0.0411375 0.0563295 0.0722944 0.0270919 0.027611 0.0276595 0.0139964 0.00119399 -0.0108464 0.000667007 0.00122879 0.07316 0.0571898 0.041993 0.0566794 0.0572534 0.0242351 0.0253364 0.025953 0.0117333 -0.00105755 -0.0130879 -0.00216163 -0.000460503 0.0537913 0.0548895 0.0555279 0.0397055 0.0708457 0.230223 0.207796 0.186173 0.165377 0.145376 0.126198 0.107807 0.0902377 0.0734479 0.0574759 0.0422775 0.0278939 0.0142778 0.00147395 -0.0105678 -0.0217998 -0.0322744 -0.0419414 -0.0508553 -0.0589634 -0.0663219 -0.0728761 -0.0786837 -0.0836883 -0.0879484 -0.0914064 -0.0941217 -0.0960354 -0.0972074 0.00122878 0.00119398 0.000666996 0.000352105 -0.000460515 -0.00105756 -0.00216164 -0.00304484 -0.00444826 -0.00562355 -0.00733627 -0.00881149 -0.0108456 -0.0126306 -0.0150005 -0.0171071 -0.0198294 -0.0222713 -0.0253665 -0.0281611 -0.0316486 -0.0348121 -0.0387367 -0.0423113 -0.0466357 -0.0505834 -0.0557009 -0.0604077 -0.0646854 0.000111313 0.0136654 0.0279777 0.0431048 0.0589967 0.0757064 0.0931886 0.111492 0.130577 0.150486 0.171186 0.192715 0.215047 0.0117333 0.0253364 0.0397055 0.0548895 0.0708457 0.0876199 0.105173 0.123547 0.142707 0.162692 0.18347 0.205077 0.227487 0.0882818 0.0890772 0.0894471 0.089948 0.0900279 0.025953 0.0267604 0.0270919 0.027611 0.0276595 0.0131501 0.0139964 0.0722944 0.0563295 0.0411375 0.0555278 0.07316 0.0571898 0.041993 0.0566794 0.0572534 0.163406 0.164187 0.1646 0.16508 0.165196 0.144193 0.125023 0.106639 0.124234 0.126002 0.125905 0.125414 0.14508 0.107516 0.22901 0.206591 0.184975 0.205818 0.207631 0.207495 0.207028 0.229921 0.185874 0.0775866 0.079626 0.0811919 0.0829076 0.0841661 0.0855673 0.086525 0.0661604 0.0502312 0.0350716 0.0207271 0.00714562 0.048517 0.0469851 0.0449484 0.0628966 0.0190139 0.0175122 0.0154773 0.0318412 0.00394425 0.0537913 0.0528609 0.0514591 0.0688051 0.00973625 0.0233296 0.0376878 0.0242351 0.021927 0.152452 0.154499 0.156141 0.157861 0.159188 0.160587 0.161605 0.137906 0.118777 0.100431 0.117059 0.115456 0.113413 0.134565 0.0971303 0.122456 0.121469 0.120068 0.140616 0.103107 0.222563 0.200183 0.178608 0.198463 0.196779 0.194728 0.219136 0.175224 0.203995 0.202945 0.201548 0.225341 0.181352 -0.022079 -0.0085262 0.00575684 0.020859 0.0366968 0.0533538 0.0707546 0.0889757 0.107951 0.127748 0.148313 0.169699 0.191887 0.0565368 0.0599598 0.0628182 0.065887 0.0684152 0.0711317 0.0733332 0.0492167 0.0333629 0.0182658 0.00398268 -0.00955034 0.0302889 0.0274619 0.0240226 0.0433047 -0.0154384 -0.00190671 0.0123725 0.000899629 -0.00536796 0.0407342 0.0385705 0.0358545 0.0544426 -0.00437756 0.00916376 0.02346 0.0112959 0.00644571 0.131019 0.134431 0.137387 0.140458 0.143084 0.145809 0.148103 0.120605 0.101576 0.0833218 0.0985087 0.0956072 0.0921939 0.114609 0.0773758 0.109115 0.106869 0.10415 0.125927 0.0885903 0.204829 0.182561 0.161095 0.179485 0.176463 0.173047 0.198689 0.155034 0.210281 0.187979 0.16648 0.185247 0.190327 0.0257853 0.0293414 0.0335607 0.0382038 0.0419628 0.0460507 0.0495637 0.0214066 0.00555701 -0.0097248 -0.024043 -0.0378031 0.000768355 -0.00358743 -0.00738615 0.0127957 -0.0289938 -0.0335211 -0.0375681 -0.0186191 -0.0470157 0.0170303 0.0135135 0.00935643 0.0293963 -0.0295105 -0.0159396 -0.00159804 -0.0124002 -0.0201768 0.176667 0.154462 0.133118 0.112618 0.0928052 0.0739043 0.0555877 0.108283 0.104039 0.100564 0.150327 0.146566 0.141264 0.16856 0.12502 0.0471781 0.0652256 0.0844725 0.069372 0.0618205 0.124008 0.120446 0.11642 0.140995 0.162351 0.184466 0.165977 0.158329 0.0634828 0.0816903 0.100676 0.0852155 0.0776441 -0.110912 -0.109741 -0.107836 -0.105128 -0.101685 -0.0974372 -0.0924537 -0.0866651 -0.0801387 -0.0728065 -0.0647338 -0.0558542 -0.0462309 -0.0357992 -0.0246199 -0.0849458 -0.0829081 -0.0815014 -0.0797867 -0.078678 -0.0772703 -0.0764488 -0.0753356 -0.0747935 -0.0739654 -0.0736978 -0.0731479 -0.0731523 -0.0830694 -0.0880652 -0.0923195 -0.0957713 -0.0984832 -0.100393 -0.101564 -0.0971806 -0.0982739 -0.09999 -0.101382 -0.103422 -0.0948251 -0.0905734 -0.0855819 -0.0894738 -0.0979359 -0.0936867 -0.0886995 -0.0922889 -0.0957258 -0.104063 -0.102892 -0.100984 -0.101803 -0.107167 -0.105997 -0.104091 -0.104609 -0.108038 -0.0797707 -0.0847729 -0.0890315 -0.0924878 -0.0952022 -0.0971149 -0.0982866 -0.0933201 -0.0938487 -0.0949645 -0.0903943 -0.0861376 -0.0811382 -0.0856035 -0.0872523 -0.0996448 -0.0984735 -0.0965619 -0.0979482 -0.09959 -0.0916904 -0.0916762 -0.092232 -0.083969 -0.0839588 -0.0845122 -0.0789549 -0.0882186 -0.0974766 -0.0963047 -0.0943912 -0.0963214 -0.096862 -0.0150667 -0.0262787 -0.0367365 -0.0463864 -0.0552863 -0.0633802 -0.0707275 -0.0477919 -0.0489276 -0.0506407 -0.0520747 -0.0541097 -0.0392862 -0.028837 -0.0176352 -0.0276831 -0.0424426 -0.0320025 -0.0208119 -0.0305497 -0.0340367 -0.0732495 -0.0659075 -0.0578206 -0.0647868 -0.0763767 -0.06904 -0.0609606 -0.0676213 -0.0710762 -0.0116845 -0.0229113 -0.0333815 -0.0430441 -0.0519543 -0.0600586 -0.0674142 -0.0438656 -0.0444304 -0.0455396 -0.0347732 -0.0243084 -0.0130879 -0.0237286 -0.0254151 -0.068788 -0.061436 -0.0533362 -0.0608838 -0.0625473 -0.0422046 -0.0422166 -0.0427568 -0.0325507 -0.0220771 -0.0108465 -0.0220545 -0.0226112 -0.0665944 -0.0592367 -0.0511295 -0.0592337 -0.0597822 -0.141696 -0.136768 -0.131483 -0.125826 -0.121555 -0.116914 -0.113164 -0.109043 -0.105809 -0.102211 -0.0994106 -0.0962562 -0.0938478 -0.0910975 -0.0890462 -0.114872 -0.119874 -0.124157 -0.127612 -0.130348 -0.132255 -0.133444 -0.131848 -0.136836 -0.141291 -0.144706 -0.14759 -0.14943 -0.15074 -0.150507 -0.155945 -0.16103 -0.15195 -0.147951 -0.142366 -0.142577 -0.152971 -0.161541 -0.160743 -0.158343 -0.155268 -0.165868 -0.131794 -0.135603 -0.140338 -0.12403 -0.127814 -0.132509 -0.122752 -0.132097 -0.141447 -0.140278 -0.13833 -0.136453 -0.145037 -0.107514 -0.109557 -0.112318 -0.114725 -0.117901 -0.120712 -0.124347 -0.111282 -0.107031 -0.102048 -0.104624 -0.101867 -0.0998213 -0.106115 -0.0968853 -0.116623 -0.113004 -0.110197 -0.117262 -0.108012 -0.120514 -0.119341 -0.117437 -0.116934 -0.114169 -0.112129 -0.115341 -0.112266 -0.126513 -0.125337 -0.123429 -0.122522 -0.128982 -0.0468191 -0.058005 -0.0684677 -0.0781077 -0.0870264 -0.0951207 -0.102495 -0.0628132 -0.0740481 -0.0847381 -0.0944201 -0.103561 -0.111684 -0.119269 -0.0998435 -0.104879 -0.109539 -0.0945709 -0.0842047 -0.0723456 -0.0793256 -0.0886873 -0.1296 -0.122406 -0.113663 -0.117235 -0.127214 -0.0821372 -0.0858007 -0.0902985 -0.0760866 -0.0656 -0.0543411 -0.0619824 -0.0700128 -0.0991989 -0.102907 -0.107482 -0.0947411 -0.110298 -0.0582286 -0.0602995 -0.0630351 -0.0654523 -0.0685773 -0.071368 -0.0749132 -0.0558375 -0.0454127 -0.0342474 -0.0506827 -0.0402573 -0.0290872 -0.038171 -0.0429857 -0.0617443 -0.0513124 -0.0401409 -0.0485223 -0.0548284 -0.0897317 -0.0823982 -0.0743299 -0.0799867 -0.0772436 -0.0751842 -0.0845739 -0.0691753 -0.0919064 -0.0883332 -0.0855385 -0.0956764 -0.0802547 -0.0646854 -0.0604077 -0.0557009 -0.0505834 -0.0466357 -0.0423113 -0.0387367 -0.0348121 -0.0316486 -0.0281611 -0.0253665 -0.0222713 -0.0198294 -0.0171071 -0.0150005 -0.0126306 -0.0108456 -0.00881149 -0.00733627 -0.00562354 -0.00444826 -0.00304484 -0.00216164 -0.00105756 -0.000460514 0.000352106 0.000666996 0.00119398 0.00122878 -0.00437756 0.00916376 0.02346 0.0385705 0.0544426 0.0711317 0.0885903 0.106869 0.125927 0.145809 0.16648 0.187979 0.210281 -0.0295104 -0.0159396 -0.00159804 0.0135135 0.0293963 0.0460507 0.0634828 0.0816903 0.100676 0.120446 0.140995 0.162351 0.184466 0.0419628 0.0382039 0.0335607 0.0293414 0.0257853 0.0214066 0.00555701 -0.00972479 -0.024043 -0.0378031 0.00935644 -0.0201768 -0.00738616 -0.00358743 0.000768356 0.0127957 -0.0375681 -0.0335211 -0.0289938 -0.0186191 -0.0470157 0.11642 0.112618 0.108283 0.104039 0.100564 0.0928052 0.0739043 0.0555877 0.0776441 0.0618205 0.0652256 0.069372 0.0844725 0.0471781 0.176667 0.154462 0.133118 0.158329 0.141264 0.146566 0.150327 0.16856 0.12502 0.0684152 0.065887 0.0628182 0.0599598 0.0565368 0.0533538 0.0495638 0.0433047 0.0274619 0.0123725 -0.00190671 -0.0154384 0.030289 0.0333629 0.0358545 0.0492167 -0.00955034 0.00398268 0.0182658 0.000899632 0.00644572 0.0170303 0.020859 0.0240226 0.0366968 -0.022079 -0.0085262 0.00575684 -0.0124002 -0.00536796 0.198689 0.176463 0.155034 0.134431 0.114609 0.0956072 0.0773759 0.137387 0.140458 0.143084 0.161095 0.182561 0.204829 0.179485 0.185247 0.0985087 0.101576 0.10415 0.120605 0.0833218 0.124008 0.127748 0.131019 0.165977 0.169699 0.173047 0.191887 0.148313 0.0707546 0.0889757 0.107951 0.0852155 0.0921939 0.00973625 0.0233296 0.0376878 0.0528609 0.0688051 0.0855673 0.103107 0.121469 0.140616 0.160587 0.181352 0.202945 0.225341 0.0841661 0.0829076 0.0811919 0.079626 0.0775866 0.0757064 0.0733332 0.0628966 0.0469851 0.0318412 0.0175122 0.00394425 0.048517 0.0502312 0.0514591 0.0661604 0.0190139 0.0207271 0.021927 0.0350717 0.00714562 0.0407342 0.0431048 0.0449484 0.0589967 0.0112959 0.0136654 0.0154773 0.0279777 0.000111315 0.159188 0.157861 0.156141 0.154499 0.152452 0.150486 0.148103 0.134565 0.115456 0.0971303 0.117059 0.118777 0.120068 0.137906 0.100431 0.109115 0.111492 0.113413 0.130577 0.0931886 0.219136 0.196779 0.175224 0.198463 0.200183 0.201548 0.222563 0.178608 0.190327 0.192715 0.194728 0.215047 0.171186 0.0900279 0.089948 0.0894471 0.0890772 0.0882818 0.0876199 0.086525 0.0722944 0.0563295 0.0411375 0.0267604 0.0131501 0.0566794 0.0571898 0.0572534 0.07316 0.0270919 0.027611 0.0276595 0.041993 0.0139964 0.0537913 0.0548895 0.0555278 0.0708457 0.0117333 0.0253364 0.0397055 0.0242351 0.025953 0.165196 0.16508 0.1646 0.164187 0.163406 0.162692 0.161605 0.144193 0.125023 0.106639 0.125414 0.125905 0.126002 0.14508 0.107516 0.122456 0.123547 0.124234 0.142707 0.105173 0.22901 0.206591 0.184975 0.207028 0.207495 0.207631 0.229921 0.185874 0.203995 0.205077 0.205818 0.227487 0.18347 -0.115341 -0.114169 -0.112266 -0.109557 -0.106115 -0.101867 -0.0968853 -0.0910975 -0.0845739 -0.0772436 -0.0691753 -0.0602995 -0.0506827 -0.0402573 -0.0290872 -0.0938478 -0.0962562 -0.0994106 -0.102211 -0.105809 -0.109043 -0.113164 -0.116913 -0.121555 -0.125826 -0.131483 -0.136768 -0.141696 -0.114872 -0.119874 -0.124157 -0.127612 -0.130348 -0.132255 -0.133444 -0.124347 -0.120712 -0.117901 -0.114725 -0.112318 -0.117262 -0.113004 -0.108012 -0.116623 -0.111282 -0.107031 -0.102048 -0.110197 -0.104624 -0.126513 -0.125337 -0.123429 -0.128982 -0.120514 -0.119341 -0.117437 -0.122522 -0.116934 -0.131848 -0.136836 -0.141291 -0.144706 -0.14759 -0.14943 -0.15074 -0.140338 -0.135603 -0.131794 -0.132097 -0.127814 -0.122752 -0.132509 -0.12403 -0.145037 -0.140278 -0.136453 -0.13833 -0.141447 -0.16103 -0.155945 -0.150507 -0.15195 -0.147951 -0.142366 -0.152971 -0.142577 -0.165868 -0.160743 -0.155268 -0.158343 -0.161541 -0.0468191 -0.058005 -0.0684677 -0.0781077 -0.0870264 -0.0951207 -0.102495 -0.0749132 -0.071368 -0.0685773 -0.0654523 -0.0630351 -0.0617443 -0.0513124 -0.0401409 -0.0548284 -0.0558375 -0.0454127 -0.0342474 -0.0485223 -0.0429857 -0.0956764 -0.0883331 -0.0802547 -0.0919064 -0.0799867 -0.0823982 -0.0855384 -0.0897317 -0.0743299 -0.109539 -0.104879 -0.0998435 -0.0944201 -0.0902985 -0.0858007 -0.0821372 -0.0847381 -0.0740481 -0.0628132 -0.0793256 -0.0842047 -0.0886873 -0.0945709 -0.0723456 -0.0619824 -0.0656 -0.0700128 -0.0760866 -0.0543411 -0.119269 -0.111684 -0.103561 -0.117235 -0.122406 -0.127214 -0.1296 -0.113663 -0.110298 -0.102907 -0.0947411 -0.107482 -0.0991989 -0.101564 -0.100393 -0.0984832 -0.0957713 -0.0923195 -0.0880652 -0.0830694 -0.0772703 -0.0707275 -0.0633802 -0.0552863 -0.0463864 -0.0367365 -0.0262787 -0.0150667 -0.078678 -0.0797867 -0.0815014 -0.0829081 -0.0849458 -0.0866651 -0.0890462 -0.0971806 -0.0982739 -0.09999 -0.101382 -0.103422 -0.105128 -0.107514 -0.104091 -0.105997 -0.107167 -0.104609 -0.102892 -0.101803 -0.100984 -0.104063 -0.112129 -0.109741 -0.108038 -0.107836 -0.110912 -0.0886995 -0.0936867 -0.0979359 -0.0855819 -0.0905734 -0.0948251 -0.0894738 -0.0922889 -0.0998213 -0.0974372 -0.0957258 -0.0924537 -0.101685 -0.0208119 -0.0320025 -0.0424426 -0.0520747 -0.0609606 -0.06904 -0.0763767 -0.0506407 -0.0489276 -0.0477919 -0.0392862 -0.028837 -0.0176352 -0.0305497 -0.0276831 -0.0732495 -0.0659075 -0.0578206 -0.0676213 -0.0647868 -0.0582286 -0.0558542 -0.0541097 -0.0462309 -0.0357992 -0.0246199 -0.038171 -0.0340366 -0.0751842 -0.0728065 -0.0710762 -0.0647338 -0.0801387 -0.0731523 -0.0731479 -0.0736978 -0.0739654 -0.0747935 -0.0753356 -0.0764488 -0.0797707 -0.0847729 -0.0890315 -0.0924878 -0.0952022 -0.0971149 -0.0982866 -0.092232 -0.0916762 -0.0916904 -0.0882186 -0.0839588 -0.0789549 -0.0845122 -0.083969 -0.0974766 -0.0963047 -0.0943912 -0.096862 -0.0963214 -0.0949645 -0.0938487 -0.0933201 -0.0903943 -0.0861376 -0.0811382 -0.0872523 -0.0856034 -0.0996448 -0.0984735 -0.0965619 -0.09959 -0.0979482 -0.0116845 -0.0229113 -0.0333815 -0.0430441 -0.0519543 -0.0600586 -0.0674142 -0.0427568 -0.0422166 -0.0422046 -0.0325507 -0.0220771 -0.0108465 -0.0226112 -0.0220545 -0.0597822 -0.0592367 -0.0592337 -0.0511295 -0.0665944 -0.0455396 -0.0444304 -0.0438656 -0.0347732 -0.0243084 -0.0130879 -0.0254151 -0.0237286 -0.068788 -0.061436 -0.0533362 -0.0625473 -0.0608838 
</DataArray>
<DataArray Name="Warping_Y" format="ascii" type="Float64">