<?xml version="1.0"?>
<VTKFile byte_order="LittleEndian" type="UnstructuredGrid" version="0.1">
<UnstructuredGrid>
<Piece NumberOfCells="288" NumberOfPoints="384">
<PointData>
<DataArray Name="Warping_X" format="ascii" type="Float64">
-2.73094e-13 0.300214 0.0391833 0.0776977 0.114885 0.150106 0.18276 0.212283 0.238174 0.259989 0.277355 0.289984 0.297643 0.322895 -2.39806e-13 0.0421434 0.0835674 0.123562 0.161442 0.196563 0.228318 0.256165 0.279634 0.298312 0.311889 0.32013 0.346401 -2.06926e-13 0.0452119 0.0896579 0.132562 0.173198 0.210871 0.244941 0.274819 0.299987 0.320027 0.334595 0.343436 0.370732 -1.73543e-13 0.0483876 0.0959539 0.141872 0.185366 0.225686 0.262142 0.294119 0.321062 0.342508 0.358094 0.367559 -3.23977e-13 0.297643 0.289984 0.277355 0.259989 0.238174 0.212283 0.18276 0.150106 0.114885 0.0776976 0.0391833 -3.24098e-13 0.32013 0.311889 0.298312 0.279634 0.256164 0.228318 0.196563 0.161442 0.123562 0.0835673 0.0421435 -3.2408e-13 0.343436 0.334595 0.320027 0.299987 0.274819 0.244941 0.210871 0.173198 0.132562 0.0896577 0.0452119 -3.23957e-13 0.367559 0.358094 0.342508 0.321062 0.294119 0.262142 0.225686 0.185366 0.141872 0.0959539 0.0483875 -0.300214 -0.0391833 -0.0776976 -0.114885 -0.150106 -0.18276 -0.212283 -0.238174 -0.259989 -0.277355 -0.289984 -0.297643 -0.322895 -0.0421435 -0.0835673 -0.123562 -0.161442 -0.196563 -0.228318 -0.256164 -0.279634 -0.298312 -0.311889 -0.32013 -0.346401 -0.0452119 -0.0896577 -0.132562 -0.173198 -0.210871 -0.244941 -0.274819 -0.299987 -0.320027 -0.334595 -0.343436 -0.370732 -0.0483875 -0.0959539 -0.141872 -0.185366 -0.225686 -0.262142 -0.294119 -0.321062 -0.342508 -0.358094 -0.367559 1.4092e-13 -0.297643 -0.289984 -0.277355 -0.259989 -0.238174 -0.212283 -0.18276 -0.150106 -0.114885 -0.0776977 -0.0391833 1.3693e-13 -0.32013 -0.311889 -0.298312 -0.279634 -0.256165 -0.228318 -0.196563 -0.161442 -0.123562 -0.0835674 -0.0421434 1.32734e-13 -0.343436 -0.334595 -0.320027 -0.299987 -0.274819 -0.244941 -0.210871 -0.173198 -0.132562 -0.0896579 -0.0452119 1.2875e-13 -0.367559 -0.358094 -0.342508 -0.321062 -0.294119 -0.262142 -0.225686 -0.185366 -0.141872 -0.0959539 -0.0483876 0.300214 0.0391833 0.0776977 0.114885 0.150106 0.18276 0.212283 0.238174 0.259989 0.277355 0.289984 0.297643 0.322895 0.0421434 0.0835674 0.123562 0.161442 0.196563 0.228318 0.256165 0.279634 0.298312 0.311889 0.32013 0.346401 0.0452119 0.0896579 0.132562 0.173198 0.210871 0.244941 0.274819 0.299987 0.320027 0.334595 0.343436 0.370732 0.0483876 0.0959539 0.141872 0.185366 0.225686 0.262142 0.294119 0.321062 0.342508 0.358094 0.367559 5.36523e-13 0.297643 0.289984 0.277355 0.259989 0.238174 0.212283 0.18276 0.150106 0.114885 0.0776976 0.0391833 5.37105e-13 0.32013 0.311889 0.298312 0.279634 0.256164 0.228318 0.196563 0.161442 0.123562 0.0835673 0.0421435 5.37111e-13 0.343436 0.334595 0.320027 0.299987 0.274819 0.244941 0.210871 0.173198 0.132562 0.0896577 0.0452119 5.3665e-13 0.367559 0.358094 0.342508 0.321062 0.294119 0.262142 0.225686 0.185366 0.141872 0.0959539 0.0483875 -0.300214 -0.0391833 -0.0776976 -0.114885 -0.150106 -0.18276 -0.212283 -0.238174 -0.259989 -0.277355 -0.289984 -0.297643 -0.322895 -0.0421435 -0.0835673 -0.123562 -0.161442 -0.196563 -0.228318 -0.256164 -0.279634 -0.298312 -0.311889 -0.32013 -0.346401 -0.0452119 -0.0896577 -0.132562 -0.173198 -0.210871 -0.244941 -0.274819 -0.299987 -0.320027 -0.334595 -0.343436 -0.370732 -0.0483875 -0.0959539 -0.141872 -0.185366 -0.225686 -0.262142 -0.294119 -0.321062 -0.342508 -0.358094 -0.367559 -0.297643 -0.289984 -0.277355 -0.259989 -0.238174 -0.212283 -0.18276 -0.150106 -0.114885 -0.0776977 -0.0391833 -0.32013 -0.311889 -0.298312 -0.279634 -0.256165 -0.228318 -0.196563 -0.161442 -0.123562 -0.0835674 -0.0421434 -0.343436 -0.334595 -0.320027 -0.299987 -0.274819 -0.244941 -0.210871 -0.173198 -0.132562 -0.0896579 -0.0452119 -0.367559 -0.358094 -0.342508 -0.321062 -0.294119 -0.262142 -0.225686 -0.185366 -0.141872 -0.0959539 -0.0483876 
</DataArray>
<DataArray Name="Warping_Y" format="ascii" type="Float64">
-0.300208 1.96641e-06 -0.297638 -0.289979 -0.277358 -0.259985 -0.238172 -0.212276 -0.182757 -0.150101 -0.114883 -0.0776972 -0.0391859 -6.89332e-08 -0.322889 -0.320125 -0.31189 -0.298313 -0.279632 -0.256166 -0.22832 -0.196564 -0.161444 -0.123567 -0.0835676 -0.042147 -1.04319e-06 -0.3464 -0.343437 -0.334597 -0.320028 -0.299991 -0.27482 -0.244938 -0.210875 -0.173202 -0.13256 -0.089656 -0.0452146 -9.30789e-07 -0.370729 -0.367559 -0.358093 -0.342513 -0.321064 -0.294119 -0.262147 -0.225684 -0.185368 -0.141873 -0.0959512 -0.0483888 0.300212 0.0391899 0.0777012 0.114887 0.150105 0.182761 0.21228 0.238176 0.259989 0.277362 0.289983 0.297642 0.322889 0.0421469 0.0835674 0.123567 0.161444 0.196564 0.22832 0.256166 0.279632 0.298313 0.31189 0.320125 0.346398 0.0452126 0.0896538 0.132558 0.1732 0.210873 0.244936 0.274818 0.299989 0.320026 0.334595 0.343435 0.370728 0.048387 0.0959493 0.141871 0.185366 0.225682 0.262145 0.294118 0.321062 0.342511 0.358091 0.367557 1.96641e-06 0.297642 0.289983 0.277362 0.259989 0.238176 0.21228 0.182761 0.150105 0.114887 0.0777012 0.0391899 -6.89331e-08 0.320125 0.31189 0.298313 0.279632 0.256166 0.22832 0.196564 0.161444 0.123567 0.0835674 0.0421469 -1.04319e-06 0.343435 0.334595 0.320026 0.299989 0.274818 0.244936 0.210873 0.1732 0.132558 0.0896538 0.0452126 -9.30789e-07 0.367557 0.358091 0.342511 0.321062 0.294118 0.262145 0.225682 0.185366 0.141871 0.0959493 0.048387 -0.300208 -0.0391859 -0.0776972 -0.114883 -0.150101 -0.182757 -0.212276 -0.238172 -0.259985 -0.277358 -0.289979 -0.297638 -0.322889 -0.042147 -0.0835676 -0.123567 -0.161444 -0.196564 -0.22832 -0.256166 -0.279632 -0.298313 -0.31189 -0.320125 -0.3464 -0.0452146 -0.089656 -0.13256 -0.173202 -0.210875 -0.244938 -0.27482 -0.299991 -0.320028 -0.334597 -0.343437 -0.370729 -0.0483888 -0.0959512 -0.141873 -0.185368 -0.225684 -0.262147 -0.294119 -0.321064 -0.342513 -0.358093 -0.367559 1.96641e-06 -0.297638 -0.289979 -0.277358 -0.259985 -0.238172 -0.212276 -0.182757 -0.150101 -0.114883 -0.0776972 -0.0391859 -6.89334e-08 -0.320125 -0.31189 -0.298313 -0.279632 -0.256166 -0.22832 -0.196564 -0.161444 -0.123567 -0.0835676 -0.042147 -1.04319e-06 -0.343437 -0.334597 -0.320028 -0.299991 -0.27482 -0.244938 -0.210875 -0.173202 -0.13256 -0.089656 -0.0452146 -9.3079e-07 -0.367559 -0.358093 -0.342513 -0.321064 -0.294119 -0.262147 -0.225684 -0.185368 -0.141873 -0.0959512 -0.0483888 0.300212 0.0391899 0.0777012 0.114887 0.150105 0.182761 0.21228 0.238176 0.259989 0.277362 0.289983 0.297642 0.322889 0.0421469 0.0835674 0.123567 0.161444 0.196564 0.22832 0.256166 0.279632 0.298313 0.31189 0.320125 0.346398 0.0452126 0.0896538 0.132558 0.1732 0.210873 0.244936 0.274818 0.299989 0.320026 0.334595 0.343435 0.370728 0.048387 0.0959493 0.141871 0.185366 0.225682 0.262145 0.294118 0.321062 0.342511 0.358091 0.367557 1.96641e-06 0.297642 0.289983 0.277362 0.259989 0.238176 0.21228 0.182761 0.150105 0.114887 0.0777012 0.0391899 -6.89339e-08 0.320125 0.31189 0.298313 0.279632 0.256166 0.22832 0.196564 0.161444 0.123567 0.0835674 0.0421469 -1.04319e-06 0.343435 0.334595 0.320026 0.299989 0.274818 0.244936 0.210873 0.1732 0.132558 0.0896538 0.0452126 -9.3079e-07 0.367557 0.358091 0.342511 0.321062 0.294118 0.262145 0.225682 0.185366 0.141871 0.0959493 0.048387 -0.0391859 -0.0776972 -0.114883 -0.150101 -0.182757 -0.212276 -0.238172 -0.259985 -0.277358 -0.289979 -0.297638 -0.042147 -0.0835676 -0.123567 -0.161444 -0.196564 -0.22832 -0.256166 -0.279632 -0.298313 -0.31189 -0.320125 -0.0452146 -0.089656 -0.13256 -0.173202 -0.210875 -0.244938 -0.27482 -0.299991 -0.320028 -0.334597 -0.343437 -0.0483888 -0.0959512 -0.141873 -0.185368 -0.225684 -0.262147 -0.294119 -0.321064 -0.342513 -0.358093 -0.367559 
</DataArray>
<DataArray Name="Warping_Z" format="ascii" type="Float64">
0 0 0 0 0 0 0 0 0 0 0 0 0 0 0 0 0 0 0 0 0 0 0 0 0 0 0 0 0 0 0 0 0 0 0 0 0 0 0 0 0 0 0 0 0 0 0 0 0 0 0 0 0 0 0 0 0 0 0 0 0 0 0 0 0 0 0 0 0 0 0 0 0 0 0 0 0 0 0 0 0 0 0 0 0 0 0 0 0 0 0 0 0 0 0 0 0 0 0 0 0 0 0 0 0 0 0 0 0 0 0 0 0 0 0 0 0 0 0 0 0 0 0 0 0 0 0 0 0 0 0 0 0 0 0 0 0 0 0 0 0 0 0 0 0 0 0 0 0 0 0 0 0 0 0 0 0 0 0 0 0 0 0 0 0 0 0 0 0 0 0 0 0 0 0 0 0 0 0 0 0 0 0 0 0 0 0 0 0 0 0 0 0 0 0 0 0 0 0 0 0 0 0 0 0 0 0 0 0 0 0 0 0 0 0 0 0 0 0 0 0 0 0 0 0 0 0 0 0 0 0 0 0 0 0 0 0 0 0 0 0 0 0 0 0 0 0 0 0 0 0 0 0 0 0 0 0 0 0 0 0 0 0 0 0 0 0 0 0 0 0 0 0 0 0 0 0 0 0 0 0 0 0 0 0 0 0 0 0 0 0 0 0 0 0 0 0 0 0 0 0 0 0 0 0 0 0 0 0 0 0 0 0 0 0 0 0 0 0 0 0 0 0 0 0 0 0 0 0 0 0 0 0 0 0 0 0 0 0 0 0 0 0 0 0 0 0 0 0 0 0 0 0 0 0 0 0 0 0 0 0 0 0 0 0 0 0 0 0 0 0 0 0 0 0 0 0 0 0 0 0 0 0 0 
</DataArray>
</PointData>
<CellData>
<DataArray Name="MaterialId" format="ascii" type="Float64">
1 1 1 1 1 1 1 1 1 1 1 1 1 1 1 1 1 1 1 1 1 1 1 1 1 1 1 1 1 1 1 1 1 1 1 1 1 1 1 1 1 1 1 1 1 1 1 1 1 1 1 1 1 1 1 1 1 1 1 1 1 1 1 1 1 1 1 1 1 1 1 1 1 1 1 1 1 1 1 1 1 1 1 1 1 1 1 1 1 1 1 1 1 1 1 1 1 1 1 1 1 1 1 1 1 1 1 1 1 1 1 1 1 1 1 1 1 1 1 1 1 1 1 1 1 1 1 1 1 1 1 1 1 1 1 1 1 1 1 1 1 1 1 1 1 1 1 1 1 1 1 1 1 1 1 1 1 1 1 1 1 1 1 1 1 1 1 1 1 1 1 1 1 1 1 1 1 1 1 1 1 1 1 1 1 1 1 1 1 1 1 1 1 1 1 1 1 1 1 1 1 1 1 1 1 1 1 1 1 1 1 1 1 1 1 1 1 1 1 1 1 1 1 1 1 1 1 1 1 1 1 1 1 1 1 1 1 1 1 1 1 1 1 1 1 1 1 1 1 1 1 1 1 1 1 1 1 1 1 1 1 1 1 1 1 1 1 1 1 1 1 1 1 1 1 1 1 1 1 1 1 1 1 1 1 1 1 1 
</DataArray>
<DataArray Name="FiberAngle" format="ascii" type="Float64">
0 0 0 0 0 0 0 0 0 0 0 0 0 0 0 0 0 0 0 0 0 0 0 0 0 0 0 0 0 0 0 0 0 0 0 0 0 0 0 0 0 0 0 0 0 0 0 0 0 0 0 0 0 0 0 0 0 0 0 0 0 0 0 0 0 0 0 0 0 0 0 0 0 0 0 0 0 0 0 0 0 0 0 0 0 0 0 0 0 0 0 0 0 0 0 0 0 0 0 0 0 0 0 0 0 0 0 0 0 0 0 0 0 0 0 0 0 0 0 0 0 0 0 0 0 0 0 0 0 0 0 0 0 0 0 0 0 0 0 0 0 0 0 0 0 0 0 0 0 0 0 0 0 0 0 0 0 0 0 0 0 0 0 0 0 0 0 0 0 0 0 0 0 0 0 0 0 0 0 0 0 0 0 0 0 0 0 0 0 0 0 0 0 0 0 0 0 0 0 0 0 0 0 0 0 0 0 0 0 0 0 0 0 0 0 0 0 0 0 0 0 0 0 0 0 0 0 0 0 0 0 0 0 0 0 0 0 0 0 0 0 0 0 0 0 0 0 0 0 0 0 0 0 0 0 0 0 0 0 0 0 0 0 0 0 0 0 0 0 0 0 0 0 0 0 0 0 0 0 0 0 0 0 0 0 0 0 0 
</DataArray>
<DataArray Name="Strain_11" format="ascii" type="Float64">
-6.79016 -6.76109 -6.70306 -6.6163 -6.5012 -6.35828 -6.1881 -5.99142 -5.7691 -5.52206 -5.2514 -4.95826 -7.03759 -7.00746 -6.94727 -6.85733 -6.73804 -6.58985 -6.41348 -6.20958 -5.97913 -5.72309 -5.44251 -5.13868 -7.28501 -7.25378 -7.19148 -7.09839 -6.97487 -6.82145 -6.63882 -6.42779 -6.18919 -5.92409 -5.63367 -5.31911 -4.64385 -4.3096 -3.95686 -3.58723 -3.20224 -2.8035 -2.39286 -1.97186 -1.54251 -1.10649 -0.6658 -0.222246 -4.81282 -4.46635 -4.10079 -3.71764 -3.31866 -2.90546 -2.47975 -2.04353 -1.59855 -1.14672 -0.689983 -0.230326 -4.9818 -4.62315 -4.24469 -3.84813 -3.43511 -3.00736 -2.5668 -2.1152 -1.65462 -1.18702 -0.71419 -0.238404 0.222246 0.6658 1.10649 1.54251 1.97186 2.39286 2.8035 3.20224 3.58723 3.95686 4.3096 4.64385 0.230326 0.689983 1.14672 1.59855 2.04353 2.47975 2.90546 3.31866 3.71764 4.10079 4.46635 4.81282 0.238404 0.71419 1.18702 1.65462 2.1152 2.5668 3.00736 3.43511 3.84813 4.24469 4.62315 4.9818 4.95826 5.2514 5.52206 5.7691 5.99142 6.1881 6.35828 6.5012 6.6163 6.70306 6.76109 6.79016 5.13868 5.44251 5.72309 5.97913 6.20958 6.41348 6.58985 6.73804 6.85733 6.94727 7.00746 7.03759 5.31911 5.63367 5.92409 6.18919 6.42779 6.63882 6.82145 6.97487 7.09839 7.19148 7.25378 7.28501 6.79016 6.76109 6.70306 6.6163 6.5012 6.35828 6.1881 5.99142 5.7691 5.52206 5.2514 4.95826 7.03759 7.00746 6.94727 6.85733 6.73804 6.58985 6.41348 6.20958 5.97913 5.72309 5.44251 5.13868 7.28501 7.25378 7.19148 7.09839 6.97487 6.82145 6.63882 6.42779 6.18919 5.92409 5.63367 5.31911 4.64385 4.3096 3.95686 3.58723 3.20224 2.8035 2.39286 1.97186 1.54251 1.10649 0.6658 0.222246 4.81282 4.46635 4.10079 3.71764 3.31866 2.90546 2.47975 2.04353 1.59855 1.14672 0.689983 0.230326 4.9818 4.62315 4.24469 3.84813 3.43511 3.00736 2.5668 2.1152 1.65462 1.18702 0.71419 0.238404 -0.222246 -0.6658 -1.10649 -1.54251 -1.97186 -2.39286 -2.8035 -3.20224 -3.58723 -3.95686 -4.3096 -4.64385 -0.230326 -0.689983 -1.14672 -1.59855 -2.04353 -2.47975 -2.90546 -3.31866 -3.71764 -4.10079 -4.46635 -4.81282 -0.238404 -0.71419 -1.18702 -1.65462 -2.1152 -2.5668 -3.00736 -3.43511 -3.84813 -4.24469 -4.62315 -4.9818 -4.95826 -5.2514 -5.52206 -5.7691 -5.99142 -6.1881 -6.35828 -6.5012 -6.6163 -6.70306 -6.76109 -6.79016 -5.13868 -5.44251 -5.72309 -5.97913 -6.20958 -6.41348 -6.58985 -6.73804 -6.85733 -6.94727 -7.00746 -7.03759 -5.31911 -5.63367 -5.92409 -6.18919 -6.42779 -6.63882 -6.82145 -6.97487 -7.09839 -7.19148 -7.25378 -7.28501 
</DataArray>
<DataArray Name="Strain_22" format="ascii" type="Float64">
-6.79028 -6.76122 -6.70324 -6.61652 -6.50147 -6.35861 -6.18852 -5.9919 -5.76966 -5.52272 -5.2521 -4.95902 -7.03704 -7.00691 -6.94682 -6.85696 -6.73778 -6.58973 -6.41346 -6.20981 -5.97946 -5.72355 -5.44316 -5.13943 -7.2838 -7.25262 -7.19041 -7.09744 -6.97409 -6.82087 -6.63845 -6.42763 -6.18928 -5.92443 -5.63418 -5.31985 -4.64466 -4.31043 -3.9577 -3.58803 -3.20302 -2.80425 -2.39349 -1.97245 -1.54294 -1.10683 -0.665992 -0.222315 -4.81368 -4.4673 -4.10177 -3.71868 -3.31963 -2.90638 -2.48066 -2.04426 -1.59915 -1.14719 -0.690279 -0.230415 -4.98269 -4.62417 -4.24581 -3.84928 -3.43627 -3.00849 -2.5678 -2.11612 -1.65538 -1.18753 -0.714545 -0.238512 0.222315 0.665992 1.10683 1.54294 1.97245 2.39349 2.80425 3.20302 3.58803 3.9577 4.31043 4.64466 0.230415 0.690279 1.14719 1.59915 2.04426 2.48066 2.90638 3.31963 3.71868 4.10177 4.4673 4.81368 0.238512 0.714545 1.18753 1.65538 2.11612 2.5678 3.00849 3.43627 3.84928 4.24581 4.62417 4.98269 4.95902 5.2521 5.52272 5.76966 5.9919 6.18852 6.35861 6.50147 6.61652 6.70324 6.76122 6.79028 5.13943 5.44316 5.72355 5.97946 6.20981 6.41346 6.58973 6.73778 6.85696 6.94682 7.00691 7.03704 5.31985 5.63418 5.92443 6.18928 6.42763 6.63845 6.82087 6.97409 7.09744 7.19041 7.25262 7.2838 6.79028 6.76122 6.70324 6.61652 6.50147 6.35861 6.18852 5.9919 5.76966 5.52272 5.2521 4.95902 7.03704 7.00691 6.94682 6.85696 6.73778 6.58973 6.41346 6.20981 5.97946 5.72355 5.44316 5.13943 7.2838 7.25262 7.19041 7.09744 6.97409 6.82087 6.63845 6.42763 6.18928 5.92443 5.63418 5.31985 4.64466 4.31043 3.9577 3.58803 3.20302 2.80425 2.39349 1.97245 1.54294 1.10683 0.665992 0.222315 4.81368 4.4673 4.10177 3.71868 3.31963 2.90638 2.48066 2.04426 1.59915 1.14719 0.690279 0.230415 4.98269 4.62417 4.24581 3.84928 3.43627 3.00849 2.5678 2.11612 1.65538 1.18753 0.714545 0.238512 -0.222315 -0.665992 -1.10683 -1.54294 -1.97245 -2.39349 -2.80425 -3.20302 -3.58803 -3.9577 -4.31043 -4.64466 -0.230415 -0.690279 -1.14719 -1.59915 -2.04426 -2.48066 -2.90638 -3.31963 -3.71868 -4.10177 -4.4673 -4.81368 -0.238512 -0.714545 -1.18753 -1.65538 -2.11612 -2.5678 -3.00849 -3.43627 -3.84928 -4.24581 -4.62417 -4.98269 -4.95902 -5.2521 -5.52272 -5.76966 -5.9919 -6.18852 -6.35861 -6.50147 -6.61652 -6.70324 -6.76122 -6.79028 -5.13943 -5.44316 -5.72355 -5.97946 -6.20981 -6.41346 -6.58973 -6.73778 -6.85696 -6.94682 -7.00691 -7.03704 -5.31985 -5.63418 -5.92443 -6.18928 -6.42763 -6.63845 -6.82087 -6.97409 -7.09744 -7.19041 -7.25262 -7.2838 
</DataArray>
<DataArray Name="Strain_12" format="ascii" type="Float64">
-3.23954e-05 -7.28716e-05 -0.000139564 -0.000159334 -0.000229521 -0.000202213 -0.000236473 -0.000214418 -0.000159009 -0.000122502 -5.62985e-05 4.61156e-05 -7.48966e-05 -0.000224205 -0.000368949 -0.000472854 -0.000536106 -0.000705584 -0.000679554 -0.000677646 -0.000740308 -0.000617882 -0.000591622 -0.000448115 -0.000112256 -0.000357777 -0.000535759 -0.000777239 -0.000933963 -0.0010065 -0.00117598 -0.00118789 -0.00118257 -0.00115009 -0.00106893 -0.00092875 0.00012934 0.000253856 0.000328915 0.000467865 0.000617858 0.000677287 0.000826504 0.000892594 0.000977129 0.00104679 0.00107912 0.00111039 -0.000319012 -0.000204859 3.30962e-05 0.000148058 0.000322159 0.000539826 0.000675343 0.000822171 0.000952094 0.00103965 0.00112174 0.00114146 -0.000768098 -0.000572381 -0.000390186 -0.000139953 0.000115323 0.000289506 0.000532938 0.000712336 0.000889141 0.0010209 0.00108664 0.00114586 0.00111039 0.00107912 0.00104679 0.000977129 0.000892594 0.000826504 0.000677287 0.000617858 0.000467865 0.000328915 0.000253856 0.00012934 0.00114146 0.00112174 0.00103965 0.000952094 0.000822171 0.000675343 0.000539826 0.000322159 0.000148058 3.30962e-05 -0.000204859 -0.000319012 0.00114586 0.00108664 0.0010209 0.000889141 0.000712336 0.000532938 0.000289506 0.000115323 -0.000139953 -0.000390186 -0.000572381 -0.000768098 4.61156e-05 -5.62985e-05 -0.000122502 -0.000159009 -0.000214418 -0.000236473 -0.000202213 -0.000229521 -0.000159334 -0.000139564 -7.28716e-05 -3.23954e-05 -0.000448115 -0.000591622 -0.000617882 -0.000740308 -0.000677646 -0.000679554 -0.000705584 -0.000536106 -0.000472854 -0.000368949 -0.000224205 -7.48966e-05 -0.00092875 -0.00106893 -0.00115009 -0.00118257 -0.00118789 -0.00117598 -0.0010065 -0.000933963 -0.000777239 -0.000535759 -0.000357777 -0.000112256 3.23954e-05 7.28716e-05 0.000139564 0.000159334 0.000229521 0.000202213 0.000236473 0.000214418 0.000159009 0.000122502 5.62985e-05 -4.61156e-05 7.48966e-05 0.000224205 0.000368949 0.000472854 0.000536106 0.000705584 0.000679554 0.000677646 0.000740308 0.000617882 0.000591622 0.000448115 0.000112256 0.000357777 0.000535759 0.000777239 0.000933963 0.0010065 0.00117598 0.00118789 0.00118257 0.00115009 0.00106893 0.00092875 -0.00012934 -0.000253856 -0.000328915 -0.000467865 -0.000617858 -0.000677287 -0.000826504 -0.000892594 -0.000977129 -0.00104679 -0.00107912 -0.00111039 0.000319012 0.000204859 -3.30962e-05 -0.000148058 -0.000322159 -0.000539826 -0.000675343 -0.000822171 -0.000952094 -0.00103965 -0.00112174 -0.00114146 0.000768098 0.000572381 0.000390186 0.000139953 -0.000115323 -0.000289506 -0.000532938 -0.000712336 -0.000889141 -0.0010209 -0.00108664 -0.00114586 -0.00111039 -0.00107912 -0.00104679 -0.000977129 -0.000892594 -0.000826504 -0.000677287 -0.000617858 -0.000467865 -0.000328915 -0.000253856 -0.00012934 -0.00114146 -0.00112174 -0.00103965 -0.000952094 -0.000822171 -0.000675343 -0.000539826 -0.000322159 -0.000148058 -3.30962e-05 0.000204859 0.000319012 -0.00114586 -0.00108664 -0.0010209 -0.000889141 -0.000712336 -0.000532938 -0.000289506 -0.000115323 0.000139953 0.000390186 0.000572381 0.000768098 -4.61156e-05 5.62985e-05 0.000122502 0.000159009 0.000214418 0.000236473 0.000202213 0.000229521 0.000159334 0.000139564 7.28716e-05 3.23954e-05 0.000448115 0.000591622 0.000617882 0.000740308 0.000677646 0.000679554 0.000705584 0.000536106 0.000472854 0.000368949 0.000224205 7.48966e-05 0.00092875 0.00106893 0.00115009 0.00118257 0.00118789 0.00117598 0.0010065 0.000933963 0.000777239 0.000535759 0.000357777 0.000112256 
</DataArray>
<DataArray Name="Strain_13" format="ascii" type="Float64">
0 0 0 0 0 0 0 0 0 0 0 0 0 0 0 0 0 0 0 0 0 0 0 0 0 0 0 0 0 0 0 0 0 0 0 0 0 0 0 0 0 0 0 0 0 0 0 0 0 0 0 0 0 0 0 0 0 0 0 0 0 0 0 0 0 0 0 0 0 0 0 0 0 0 0 0 0 0 0 0 0 0 0 0 0 0 0 0 0 0 0 0 0 0 0 0 0 0 0 0 0 0 0 0 0 0 0 0 0 0 0 0 0 0 0 0 0 0 0 0 0 0 0 0 0 0 0 0 0 0 0 0 0 0 0 0 0 0 0 0 0 0 0 0 0 0 0 0 0 0 0 0 0 0 0 0 0 0 0 0 0 0 0 0 0 0 0 0 0 0 0 0 0 0 0 0 0 0 0 0 0 0 0 0 0 0 0 0 0 0 0 0 0 0 0 0 0 0 0 0 0 0 0 0 0 0 0 0 0 0 0 0 0 0 0 0 0 0 0 0 0 0 0 0 0 0 0 0 0 0 0 0 0 0 0 0 0 0 0 0 0 0 0 0 0 0 0 0 0 0 0 0 0 0 0 0 0 0 0 0 0 0 0 0 0 0 0 0 0 0 0 0 0 0 0 0 0 0 0 0 0 0 0 0 0 0 0 0 
</DataArray>
<DataArray Name="Strain_23" format="ascii" type="Float64">
0 0 0 0 0 0 0 0 0 0 0 0 0 0 0 0 0 0 0 0 0 0 0 0 0 0 0 0 0 0 0 0 0 0 0 0 0 0 0 0 0 0 0 0 0 0 0 0 0 0 0 0 0 0 0 0 0 0 0 0 0 0 0 0 0 0 0 0 0 0 0 0 0 0 0 0 0 0 0 0 0 0 0 0 0 0 0 0 0 0 0 0 0 0 0 0 0 0 0 0 0 0 0 0 0 0 0 0 0 0 0 0 0 0 0 0 0 0 0 0 0 0 0 0 0 0 0 0 0 0 0 0 0 0 0 0 0 0 0 0 0 0 0 0 0 0 0 0 0 0 0 0 0 0 0 0 0 0 0 0 0 0 0 0 0 0 0 0 0 0 0 0 0 0 0 0 0 0 0 0 0 0 0 0 0 0 0 0 0 0 0 0 0 0 0 0 0 0 0 0 0 0 0 0 0 0 0 0 0 0 0 0 0 0 0 0 0 0 0 0 0 0 0 0 0 0 0 0 0 0 0 0 0 0 0 0 0 0 0 0 0 0 0 0 0 0 0 0 0 0 0 0 0 0 0 0 0 0 0 0 0 0 0 0 0 0 0 0 0 0 0 0 0 0 0 0 0 0 0 0 0 0 0 0 0 0 0 0 
</DataArray>
<DataArray Name="Strain_33" format="ascii" type="Float64">
0.0915682 0.0911763 0.090394 0.0892242 0.0876725 0.0857455 0.0834513 0.0807995 0.0778018 0.074471 0.0708215 0.0668688 0.0948982 0.094492 0.093681 0.0924687 0.0908608 0.0888635 0.0864858 0.0837377 0.080631 0.077179 0.0733968 0.0693003 0.0982283 0.0978075 0.096968 0.0957135 0.094049 0.0919815 0.0895202 0.086676 0.0834602 0.079887 0.075972 0.0717317 0.0626292 0.0581217 0.0533652 0.0483802 0.0431882 0.0378112 0.0322725 0.0265952 0.020804 0.0149237 0.00897975 0.0029975 0.0649067 0.0602352 0.0553058 0.0501395 0.0447587 0.0391862 0.0334457 0.027562 0.0215605 0.0154668 0.0093065 0.0031065 0.0671843 0.0623487 0.0572462 0.0518988 0.0463293 0.0405613 0.0346192 0.0285292 0.0223173 0.0160097 0.00963325 0.0032155 -0.0029975 -0.00897975 -0.0149237 -0.020804 -0.0265952 -0.0322725 -0.0378112 -0.0431882 -0.0483802 -0.0533653 -0.0581217 -0.0626292 -0.0031065 -0.0093065 -0.0154668 -0.0215605 -0.027562 -0.0334457 -0.0391862 -0.0447587 -0.0501395 -0.0553058 -0.0602353 -0.0649067 -0.0032155 -0.00963325 -0.0160097 -0.0223173 -0.0285293 -0.0346192 -0.0405612 -0.0463293 -0.0518988 -0.0572462 -0.0623487 -0.0671843 -0.0668688 -0.0708215 -0.074471 -0.0778018 -0.0807995 -0.0834513 -0.0857455 -0.0876725 -0.0892242 -0.090394 -0.0911762 -0.0915682 -0.0693003 -0.0733967 -0.077179 -0.080631 -0.0837377 -0.0864858 -0.0888635 -0.0908607 -0.0924688 -0.093681 -0.094492 -0.0948983 -0.0717317 -0.075972 -0.079887 -0.0834602 -0.086676 -0.0895203 -0.0919815 -0.094049 -0.0957135 -0.096968 -0.0978075 -0.0982283 -0.0915682 -0.0911763 -0.090394 -0.0892242 -0.0876725 -0.0857455 -0.0834513 -0.0807995 -0.0778018 -0.074471 -0.0708215 -0.0668688 -0.0948982 -0.094492 -0.093681 -0.0924687 -0.0908608 -0.0888635 -0.0864858 -0.0837377 -0.080631 -0.077179 -0.0733968 -0.0693003 -0.0982283 -0.0978075 -0.096968 -0.0957135 -0.094049 -0.0919815 -0.0895202 -0.086676 -0.0834602 -0.079887 -0.075972 -0.0717317 -0.0626292 -0.0581217 -0.0533652 -0.0483802 -0.0431882 -0.0378112 -0.0322725 -0.0265952 -0.020804 -0.0149237 -0.00897975 -0.0029975 -0.0649067 -0.0602352 -0.0553058 -0.0501395 -0.0447587 -0.0391862 -0.0334457 -0.027562 -0.0215605 -0.0154668 -0.0093065 -0.0031065 -0.0671843 -0.0623487 -0.0572462 -0.0518988 -0.0463293 -0.0405613 -0.0346192 -0.0285292 -0.0223173 -0.0160097 -0.00963325 -0.0032155 0.0029975 0.00897975 0.0149237 0.020804 0.0265952 0.0322725 0.0378112 0.0431882 0.0483802 0.0533653 0.0581217 0.0626292 0.0031065 0.0093065 0.0154668 0.0215605 0.027562 0.0334457 0.0391862 0.0447587 0.0501395 0.0553058 0.0602353 0.0649067 0.0032155 0.00963325 0.0160097 0.0223173 0.0285293 0.0346192 0.0405612 0.0463293 0.0518988 0.0572462 0.0623487 0.0671843 0.0668688 0.0708215 0.074471 0.0778018 0.0807995 0.0834513 0.0857455 0.0876725 0.0892242 0.090394 0.0911762 0.0915682 0.0693003 0.0733967 0.077179 0.080631 0.0837377 0.0864858 0.0888635 0.0908607 0.0924688 0.093681 0.094492 0.0948983 0.0717317 0.075972 0.079887 0.0834602 0.086676 0.0895203 0.0919815 0.094049 0.0957135 0.096968 0.0978075 0.0982283 
</DataArray>
<DataArray Name="Stress_11" format="ascii" type="Float64">
-940.538 -936.511 -928.475 -916.458 -900.516 -880.721 -857.152 -829.911 -799.118 -764.902 -727.413 -686.811 -974.791 -970.619 -962.284 -949.828 -933.308 -912.785 -888.358 -860.122 -828.204 -792.742 -753.883 -711.801 -1009.04 -1004.72 -996.093 -983.202 -966.098 -944.852 -919.561 -890.337 -857.294 -820.581 -780.357 -736.793 -643.262 -596.964 -548.105 -496.904 -443.577 -388.345 -331.463 -273.147 -213.671 -153.274 -92.2281 -30.7861 -666.668 -618.68 -568.045 -514.975 -459.709 -402.474 -343.506 -283.079 -221.439 -158.851 -95.5806 -31.9059 -690.075 -640.401 -587.982 -533.052 -475.844 -416.594 -355.566 -293.011 -229.209 -164.433 -98.9353 -33.0253 30.7861 92.2281 153.274 213.671 273.147 331.463 388.345 443.577 496.904 548.105 596.964 643.262 31.9059 95.5806 158.851 221.439 283.079 343.506 402.474 459.709 514.975 568.045 618.68 666.668 33.0253 98.9353 164.433 229.209 293.011 355.566 416.594 475.844 533.052 587.982 640.401 690.075 686.811 727.413 764.902 799.118 829.911 857.152 880.721 900.516 916.458 928.475 936.511 940.538 711.801 753.883 792.742 828.204 860.122 888.358 912.785 933.308 949.828 962.284 970.619 974.791 736.793 780.357 820.581 857.294 890.337 919.561 944.852 966.098 983.202 996.093 1004.72 1009.04 940.538 936.511 928.475 916.458 900.516 880.721 857.152 829.911 799.118 764.902 727.413 686.811 974.791 970.619 962.284 949.828 933.308 912.785 888.358 860.122 828.204 792.742 753.883 711.801 1009.04 1004.72 996.093 983.202 966.098 944.852 919.561 890.337 857.294 820.581 780.357 736.793 643.262 596.964 548.105 496.904 443.577 388.345 331.463 273.147 213.671 153.274 92.2281 30.7861 666.668 618.68 568.045 514.975 459.709 402.474 343.506 283.079 221.439 158.851 95.5806 31.9059 690.075 640.401 587.982 533.052 475.844 416.594 355.566 293.011 229.209 164.433 98.9353 33.0253 -30.7861 -92.2281 -153.274 -213.671 -273.147 -331.463 -388.345 -443.577 -496.904 -548.105 -596.964 -643.262 -31.9059 -95.5806 -158.851 -221.439 -283.079 -343.506 -402.474 -459.709 -514.975 -568.045 -618.68 -666.668 -33.0253 -98.9353 -164.433 -229.209 -293.011 -355.566 -416.594 -475.844 -533.052 -587.982 -640.401 -690.075 -686.811 -727.413 -764.902 -799.118 -829.911 -857.152 -880.721 -900.516 -916.458 -928.475 -936.511 -940.538 -711.801 -753.883 -792.742 -828.204 -860.122 -888.358 -912.785 -933.308 -949.828 -962.284 -970.619 -974.791 -736.793 -780.357 -820.581 -857.294 -890.337 -919.561 -944.852 -966.098 -983.202 -996.093 -1004.72 -1009.04 
</DataArray>
<DataArray Name="Stress_22" format="ascii" type="Float64">
-940.548 -936.522 -928.489 -916.476 -900.539 -880.749 -857.187 -829.951 -799.164 -764.957 -727.471 -686.875 -974.745 -970.572 -962.247 -949.797 -933.287 -912.775 -888.356 -860.141 -828.232 -792.781 -753.938 -711.864 -1008.94 -1004.62 -996.004 -983.123 -966.033 -944.804 -919.53 -890.324 -857.302 -820.609 -780.4 -736.855 -643.33 -597.033 -548.175 -496.971 -443.642 -388.407 -331.515 -273.196 -213.708 -153.302 -92.2441 -30.7919 -666.74 -618.758 -568.127 -515.061 -459.789 -402.55 -343.582 -283.139 -221.489 -158.889 -95.6053 -31.9133 -690.149 -640.485 -588.075 -533.148 -475.941 -416.688 -355.649 -293.088 -229.272 -164.475 -98.9649 -33.0343 30.7919 92.2441 153.302 213.708 273.196 331.515 388.407 443.642 496.971 548.175 597.033 643.33 31.9133 95.6053 158.889 221.489 283.139 343.582 402.55 459.789 515.061 568.127 618.758 666.74 33.0343 98.9649 164.475 229.272 293.088 355.649 416.688 475.941 533.148 588.075 640.485 690.149 686.875 727.471 764.957 799.164 829.951 857.187 880.749 900.539 916.476 928.489 936.522 940.548 711.864 753.938 792.781 828.232 860.141 888.356 912.775 933.287 949.797 962.247 970.572 974.745 736.855 780.4 820.609 857.302 890.324 919.53 944.804 966.033 983.123 996.004 1004.62 1008.94 940.548 936.522 928.489 916.476 900.539 880.749 857.187 829.951 799.164 764.957 727.471 686.875 974.745 970.572 962.247 949.797 933.287 912.775 888.356 860.141 828.232 792.781 753.938 711.864 1008.94 1004.62 996.004 983.123 966.033 944.804 919.53 890.324 857.302 820.609 780.4 736.855 643.33 597.033 548.175 496.971 443.642 388.407 331.515 273.196 213.708 153.302 92.2441 30.7919 666.74 618.758 568.127 515.061 459.789 402.55 343.582 283.139 221.489 158.889 95.6053 31.9133 690.149 640.485 588.075 533.148 475.941 416.688 355.649 293.088 229.272 164.475 98.9649 33.0343 -30.7919 -92.2441 -153.302 -213.708 -273.196 -331.515 -388.407 -443.642 -496.971 -548.175 -597.033 -643.33 -31.9133 -95.6053 -158.889 -221.489 -283.139 -343.582 -402.55 -459.789 -515.061 -568.127 -618.758 -666.74 -33.0343 -98.9649 -164.475 -229.272 -293.088 -355.649 -416.688 -475.941 -533.148 -588.075 -640.485 -690.149 -686.875 -727.471 -764.957 -799.164 -829.951 -857.187 -880.749 -900.539 -916.476 -928.489 -936.522 -940.548 -711.864 -753.938 -792.781 -828.232 -860.141 -888.356 -912.775 -933.287 -949.797 -962.247 -970.572 -974.745 -736.855 -780.4 -820.609 -857.302 -890.324 -919.53 -944.804 -966.033 -983.123 -996.004 -1004.62 -1008.94 
</DataArray>
<DataArray Name="Stress_12" format="ascii" type="Float64">