<?xml version="1.0"?>
<VTKFile byte_order="LittleEndian" type="UnstructuredGrid" version="0.1">
<UnstructuredGrid>
<Piece NumberOfCells="288" NumberOfPoints="384">
<PointData>
<DataArray Name="Warping_X" format="ascii" type="Float64">
9.05805e-16 0.0213386 0.00197359 0.00393879 0.00588723 0.00781053 0.00970029 0.0115485 0.013347 0.0150886 0.0167654 0.0183709 0.0198972 0.0221289 8.97396e-16 0.00204668 0.00408465 0.00610518 0.00809956 0.0100594 0.011976 0.0138413 0.0156475 0.0173864 0.0190512 0.0206342 0.0229192 8.78573e-16 0.00211978 0.00423084 0.00632346 0.00838892 0.0104185 0.0124038 0.0143358 0.0162062 0.0180074 0.0197315 0.0213711 0.0237095 8.74384e-16 0.00219288 0.0043767 0.00654141 0.00867829 0.0107779 0.0128313 0.0148301 0.0167651 0.0186284 0.0204118 0.0221081 0.0301772 0.0226885 0.0239412 0.0250913 0.0261341 0.0270652 0.02788 0.0285758 0.0291488 0.0295974 0.029919 0.0301125 0.0312947 0.0235288 0.0248278 0.0260208 0.0271021 0.0280675 0.0289128 0.029634 0.0302285 0.0306936 0.0310272 0.0312277 0.0324126 0.0243691 0.0257147 0.0269499 0.0280701 0.02907 0.0299452 0.0306925 0.0313082 0.0317897 0.0321354 0.0323432 0.0335302 0.0252094 0.0266012 0.0278794 0.0290382 0.0300722 0.0309779 0.0317508 0.0323878 0.0328861 0.0332432 0.0334585 0.0213386 0.0301125 0.029919 0.0295974 0.0291488 0.0285758 0.02788 0.0270652 0.0261341 0.0250913 0.0239412 0.0226885 0.0221289 0.0312277 0.0310272 0.0306936 0.0302285 0.029634 0.0289128 0.0280675 0.0271021 0.0260208 0.0248278 0.0235288 0.0229192 0.0323432 0.0321354 0.0317897 0.0313082 0.0306925 0.0299452 0.02907 0.0280701 0.0269499 0.0257147 0.0243691 0.0237095 0.0334585 0.0332432 0.0328861 0.0323878 0.0317508 0.0309779 0.0300722 0.0290382 0.0278794 0.0266012 0.0252094 7.75225e-15 0.0198972 0.0183709 0.0167654 0.0150886 0.013347 0.0115485 0.00970029 0.00781053 0.00588723 0.00393879 0.00197359 5.90102e-15 0.0206342 0.0190512 0.0173864 0.0156475 0.0138413 0.011976 0.0100594 0.00809956 0.00610518 0.00408465 0.00204668 4.08705e-15 0.0213711 0.0197315 0.0180074 0.0162062 0.0143358 0.0124038 0.0104185 0.00838892 0.00632346 0.00423084 0.00211978 2.22928e-15 0.0221081 0.0204118 0.0186284 0.0167651 0.0148301 0.0128313 0.0107779 0.00867829 0.00654141 0.0043767 0.00219288 -0.0213386 -0.00197359 -0.00393879 -0.00588723 -0.00781053 -0.00970029 -0.0115485 -0.013347 -0.0150886 -0.0167654 -0.0183709 -0.0198972 -0.0221289 -0.00204668 -0.00408465 -0.00610518 -0.00809956 -0.0100594 -0.011976 -0.0138413 -0.0156475 -0.0173864 -0.0190512 -0.0206342 -0.0229192 -0.00211978 -0.00423084 -0.00632346 -0.00838892 -0.0104185 -0.0124038 -0.0143358 -0.0162062 -0.0180074 -0.0197315 -0.0213711 -0.0237095 -0.00219288 -0.0043767 -0.00654141 -0.00867829 -0.0107779 -0.0128313 -0.0148301 -0.0167651 -0.0186284 -0.0204118 -0.0221081 -0.0301772 -0.0226885 -0.0239412 -0.0250913 -0.0261341 -0.0270652 -0.02788 -0.0285758 -0.0291488 -0.0295974 -0.029919 -0.0301125 -0.0312947 -0.0235288 -0.0248278 -0.0260208 -0.0271021 -0.0280675 -0.0289128 -0.029634 -0.0302285 -0.0306936 -0.0310272 -0.0312277 -0.0324126 -0.0243691 -0.0257147 -0.0269499 -0.0280701 -0.02907 -0.0299452 -0.0306925 -0.0313082 -0.0317897 -0.0321354 -0.0323432 -0.0335302 -0.0252094 -0.0266012 -0.0278794 -0.0290382 -0.0300722 -0.0309779 -0.0317508 -0.0323878 -0.0328861 -0.0332432 -0.0334585 -0.0213386 -0.0301125 -0.029919 -0.0295974 -0.0291488 -0.0285758 -0.02788 -0.0270652 -0.0261341 -0.0250913 -0.0239412 -0.0226885 -0.0221289 -0.0312277 -0.0310272 -0.0306936 -0.0302285 -0.029634 -0.0289128 -0.0280675 -0.0271021 -0.0260208 -0.0248278 -0.0235288 -0.0229192 -0.0323432 -0.0321354 -0.0317897 -0.0313082 -0.0306925 -0.0299452 -0.02907 -0.0280701 -0.0269499 -0.0257147 -0.0243691 -0.0237095 -0.0334585 -0.0332432 -0.0328861 -0.0323878 -0.0317508 -0.0309779 -0.0300722 -0.0290382 -0.0278794 -0.0266012 -0.0252094 -0.0198972 -0.0183709 -0.0167654 -0.0150886 -0.013347 -0.0115485 -0.00970029 -0.00781053 -0.00588723 -0.00393879 -0.00197359 -0.0206342 -0.0190512 -0.0173864 -0.0156475 -0.0138413 -0.011976 -0.0100594 -0.00809956 -0.00610518 -0.00408465 -0.00204668 -0.0213711 -0.0197315 -0.0180074 -0.0162062 -0.0143358 -0.0124038 -0.0104185 -0.00838892 -0.00632346 -0.00423084 -0.00211978 -0.0221081 -0.0204118 -0.0186284 -0.0167651 -0.0148301 -0.0128313 -0.0107779 -0.00867829 -0.00654141 -0.0043767 -0.00219288 
</DataArray>
<DataArray Name="Warping_Y" format="ascii" type="Float64">
-0.0301772 -0.0213386 -0.0301125 -0.029919 -0.0295974 -0.0291488 -0.0285758 -0.02788 -0.0270652 -0.0261341 -0.0250913 -0.0239412 -0.0226885 -0.0221289 -0.0312947 -0.0312277 -0.0310272 -0.0306936 -0.0302285 -0.029634 -0.0289128 -0.0280675 -0.0271021 -0.0260208 -0.0248278 -0.0235288 -0.0229192 -0.0324126 -0.0323432 -0.0321354 -0.0317897 -0.0313082 -0.0306925 -0.0299452 -0.02907 -0.0280701 -0.0269499 -0.0257147 -0.0243691 -0.0237095 -0.0335302 -0.0334585 -0.0332432 -0.0328861 -0.0323878 -0.0317508 -0.0309779 -0.0300722 -0.0290382 -0.0278794 -0.0266012 -0.0252094 -5.02718e-15 -0.0198972 -0.0183709 -0.0167654 -0.0150886 -0.013347 -0.0115485 -0.00970029 -0.00781053 -0.00588723 -0.00393879 -0.00197359 -3.62658e-15 -0.0206342 -0.0190512 -0.0173864 -0.0156475 -0.0138413 -0.011976 -0.0100594 -0.00809956 -0.00610518 -0.00408465 -0.00204668 -2.26122e-15 -0.0213711 -0.0197315 -0.0180074 -0.0162062 -0.0143358 -0.0124038 -0.0104185 -0.00838892 -0.00632346 -0.00423084 -0.00211978 -8.55315e-16 -0.0221081 -0.0204118 -0.0186284 -0.0167651 -0.0148301 -0.0128313 -0.0107779 -0.00867829 -0.00654141 -0.0043767 -0.00219288 0.0213386 0.00197359 0.00393879 0.00588723 0.00781053 0.00970029 0.0115485 0.013347 0.0150886 0.0167654 0.0183709 0.0198972 0.0221289 0.00204668 0.00408465 0.00610518 0.00809956 0.0100594 0.011976 0.0138413 0.0156475 0.0173864 0.0190512 0.0206342 0.0229192 0.00211978 0.00423084 0.00632346 0.00838892 0.0104185 0.0124038 0.0143358 0.0162062 0.0180074 0.0197315 0.0213711 0.0237095 0.00219288 0.0043767 0.00654141 0.00867829 0.0107779 0.0128313 0.0148301 0.0167651 0.0186284 0.0204118 0.0221081 0.0301772 0.0226885 0.0239412 0.0250913 0.0261341 0.0270652 0.02788 0.0285758 0.0291488 0.0295974 0.029919 0.0301125 0.0312947 0.0235288 0.0248278 0.0260208 0.0271021 0.0280675 0.0289128 0.029634 0.0302285 0.0306936 0.0310272 0.0312277 0.0324126 0.0243691 0.0257147 0.0269499 0.0280701 0.02907 0.0299452 0.0306925 0.0313082 0.0317897 0.0321354 0.0323432 0.0335302 0.0252094 0.0266012 0.0278794 0.0290382 0.0300722 0.0309779 0.0317508 0.0323878 0.0328861 0.0332432 0.0334585 0.0213386 0.0301125 0.029919 0.0295974 0.0291488 0.0285758 0.02788 0.0270652 0.0261341 0.0250913 0.0239412 0.0226885 0.0221289 0.0312277 0.0310272 0.0306936 0.0302285 0.029634 0.0289128 0.0280675 0.0271021 0.0260208 0.0248278 0.0235288 0.0229192 0.0323432 0.0321354 0.0317897 0.0313082 0.0306925 0.0299452 0.02907 0.0280701 0.0269499 0.0257147 0.0243691 0.0237095 0.0334585 0.0332432 0.0328861 0.0323878 0.0317508 0.0309779 0.0300722 0.0290382 0.0278794 0.0266012 0.0252094 -3.79433e-16 0.0198972 0.0183709 0.0167654 0.0150886 0.013347 0.0115485 0.00970029 0.00781053 0.00588723 0.00393879 0.00197359 -5.90657e-16 0.0206342 0.0190512 0.0173864 0.0156475 0.0138413 0.011976 0.0100594 0.00809956 0.00610518 0.00408465 0.00204668 -7.90329e-16 0.0213711 0.0197315 0.0180074 0.0162062 0.0143358 0.0124038 0.0104185 0.00838892 0.00632346 0.00423084 0.00211978 -1.01053e-15 0.0221081 0.0204118 0.0186284 0.0167651 0.0148301 0.0128313 0.0107779 0.00867829 0.00654141 0.0043767 0.00219288 -0.0213386 -0.00197359 -0.00393879 -0.00588723 -0.00781053 -0.00970029 -0.0115485 -0.013347 -0.0150886 -0.0167654 -0.0183709 -0.0198972 -0.0221289 -0.00204668 -0.00408465 -0.00610518 -0.00809956 -0.0100594 -0.011976 -0.0138413 -0.0156475 -0.0173864 -0.0190512 -0.0206342 -0.0229192 -0.00211978 -0.00423084 -0.00632346 -0.00838892 -0.0104185 -0.0124038 -0.0143358 -0.0162062 -0.0180074 -0.0197315 -0.0213711 -0.0237095 -0.00219288 -0.0043767 -0.00654141 -0.00867829 -0.0107779 -0.0128313 -0.0148301 -0.0167651 -0.0186284 -0.0204118 -0.0221081 -0.0226885 -0.0239412 -0.0250913 -0.0261341 -0.0270652 -0.02788 -0.0285758 -0.0291488 -0.0295974 -0.029919 -0.0301125 -0.0235288 -0.0248278 -0.0260208 -0.0271021 -0.0280675 -0.0289128 -0.029634 -0.0302285 -0.0306936 -0.0310272 -0.0312277 -0.0243691 -0.0257147 -0.0269499 -0.0280701 -0.02907 -0.0299452 -0.0306925 -0.0313082 -0.0317897 -0.0321354 -0.0323432 -0.0252094 -0.0266012 -0.0278794 -0.0290382 -0.0300722 -0.0309779 -0.0317508 -0.0323878 -0.0328861 -0.0332432 -0.0334585 
</DataArray>
<DataArray Name="Warping_Z" format="ascii" type="Float64">
0 0 0 0 0 0 0 0 0 0 0 0 0 0 0 0 0 0 0 0 0 0 0 0 0 0 0 0 0 0 0 0 0 0 0 0 0 0 0 0 0 0 0 0 0 0 0 0 0 0 0 0 0 0 0 0 0 0 0 0 0 0 0 0 0 0 0 0 0 0 0 0 0 0 0 0 0 0 0 0 0 0 0 0 0 0 0 0 0 0 0 0 0 0 0 0 0 0 0 0 0 0 0 0 0 0 0 0 0 0 0 0 0 0 0 0 0 0 0 0 0 0 0 0 0 0 0 0 0 0 0 0 0 0 0 0 0 0 0 0 0 0 0 0 0 0 0 0 0 0 0 0 0 0 0 0 0 0 0 0 0 0 0 0 0 0 0 0 0 0 0 0 0 0 0 0 0 0 0 0 0 0 0 0 0 0 0 0 0 0 0 0 0 0 0 0 0 0 0 0 0 0 0 0 0 0 0 0 0 0 0 0 0 0 0 0 0 0 0 0 0 0 0 0 0 0 0 0 0 0 0 0 0 0 0 0 0 0 0 0 0 0 0 0 0 0 0 0 0 0 0 0 0 0 0 0 0 0 0 0 0 0 0 0 0 0 0 0 0 0 0 0 0 0 0 0 0 0 0 0 0 0 0 0 0 0 0 0 0 0 0 0 0 0 0 0 0 0 0 0 0 0 0 0 0 0 0 0 0 0 0 0 0 0 0 0 0 0 0 0 0 0 0 0 0 0 0 0 0 0 0 0 0 0 0 0 0 0 0 0 0 0 0 0 0 0 0 0 0 0 0 0 0 0 0 0 0 0 0 0 0 0 0 0 0 0 0 0 0 0 0 0 0 0 0 0 0 0 0 0 0 0 0 0 
</DataArray>
</PointData>
<CellData>
<DataArray Name="MaterialId" format="ascii" type="Float64">
1 1 1 1 1 1 1 1 1 1 1 1 1 1 1 1 1 1 1 1 1 1 1 1 1 1 1 1 1 1 1 1 1 1 1 1 1 1 1 1 1 1 1 1 1 1 1 1 1 1 1 1 1 1 1 1 1 1 1 1 1 1 1 1 1 1 1 1 1 1 1 1 1 1 1 1 1 1 1 1 1 1 1 1 1 1 1 1 1 1 1 1 1 1 1 1 1 1 1 1 1 1 1 1 1 1 1 1 1 1 1 1 1 1 1 1 1 1 1 1 1 1 1 1 1 1 1 1 1 1 1 1 1 1 1 1 1 1 1 1 1 1 1 1 1 1 1 1 1 1 1 1 1 1 1 1 1 1 1 1 1 1 1 1 1 1 1 1 1 1 1 1 1 1 1 1 1 1 1 1 1 1 1 1 1 1 1 1 1 1 1 1 1 1 1 1 1 1 1 1 1 1 1 1 1 1 1 1 1 1 1 1 1 1 1 1 1 1 1 1 1 1 1 1 1 1 1 1 1 1 1 1 1 1 1 1 1 1 1 1 1 1 1 1 1 1 1 1 1 1 1 1 1 1 1 1 1 1 1 1 1 1 1 1 1 1 1 1 1 1 1 1 1 1 1 1 1 1 1 1 1 1 1 1 1 1 1 1 
</DataArray>
<DataArray Name="FiberAngle" format="ascii" type="Float64">
0 0 0 0 0 0 0 0 0 0 0 0 0 0 0 0 0 0 0 0 0 0 0 0 0 0 0 0 0 0 0 0 0 0 0 0 0 0 0 0 0 0 0 0 0 0 0 0 0 0 0 0 0 0 0 0 0 0 0 0 0 0 0 0 0 0 0 0 0 0 0 0 0 0 0 0 0 0 0 0 0 0 0 0 0 0 0 0 0 0 0 0 0 0 0 0 0 0 0 0 0 0 0 0 0 0 0 0 0 0 0 0 0 0 0 0 0 0 0 0 0 0 0 0 0 0 0 0 0 0 0 0 0 0 0 0 0 0 0 0 0 0 0 0 0 0 0 0 0 0 0 0 0 0 0 0 0 0 0 0 0 0 0 0 0 0 0 0 0 0 0 0 0 0 0 0 0 0 0 0 0 0 0 0 0 0 0 0 0 0 0 0 0 0 0 0 0 0 0 0 0 0 0 0 0 0 0 0 0 0 0 0 0 0 0 0 0 0 0 0 0 0 0 0 0 0 0 0 0 0 0 0 0 0 0 0 0 0 0 0 0 0 0 0 0 0 0 0 0 0 0 0 0 0 0 0 0 0 0 0 0 0 0 0 0 0 0 0 0 0 0 0 0 0 0 0 0 0 0 0 0 0 0 0 0 0 0 0 
</DataArray>
<DataArray Name="Strain_11" format="ascii" type="Float64">
-0.335302 -0.335302 -0.335302 -0.335302 -0.335302 -0.335302 -0.335302 -0.335302 -0.335302 -0.335302 -0.335302 -0.335302 -0.335302 -0.335302 -0.335302 -0.335302 -0.335302 -0.335302 -0.335302 -0.335302 -0.335302 -0.335302 -0.335302 -0.335302 -0.335302 -0.335302 -0.335302 -0.335302 -0.335302 -0.335302 -0.335302 -0.335302 -0.335302 -0.335302 -0.335302 -0.335302 -0.335302 -0.335302 -0.335302 -0.335302 -0.335302 -0.335302 -0.335302 -0.335302 -0.335302 -0.335302 -0.335302 -0.335302 -0.335302 -0.335302 -0.335302 -0.335302 -0.335302 -0.335302 -0.335302 -0.335302 -0.335302 -0.335302 -0.335302 -0.335302 -0.335302 -0.335302 -0.335302 -0.335302 -0.335302 -0.335302 -0.335302 -0.335302 -0.335302 -0.335302 -0.335302 -0.335302 -0.335302 -0.335302 -0.335302 -0.335302 -0.335302 -0.335302 -0.335302 -0.335302 -0.335302 -0.335302 -0.335302 -0.335302 -0.335302 -0.335302 -0.335302 -0.335302 -0.335302 -0.335302 -0.335302 -0.335302 -0.335302 -0.335302 -0.335302 -0.335302 -0.335302 -0.335302 -0.335302 -0.335302 -0.335302 -0.335302 -0.335302 -0.335302 -0.335302 -0.335302 -0.335302 -0.335302 -0.335302 -0.335302 -0.335302 -0.335302 -0.335302 -0.335302 -0.335302 -0.335302 -0.335302 -0.335302 -0.335302 -0.335302 -0.335302 -0.335302 -0.335302 -0.335302 -0.335302 -0.335302 -0.335302 -0.335302 -0.335302 -0.335302 -0.335302 -0.335302 -0.335302 -0.335302 -0.335302 -0.335302 -0.335302 -0.335302 -0.335302 -0.335302 -0.335302 -0.335302 -0.335302 -0.335302 -0.335302 -0.335302 -0.335302 -0.335302 -0.335302 -0.335302 -0.335302 -0.335302 -0.335302 -0.335302 -0.335302 -0.335302 -0.335302 -0.335302 -0.335302 -0.335302 -0.335302 -0.335302 -0.335302 -0.335302 -0.335302 -0.335302 -0.335302 -0.335302 -0.335302 -0.335302 -0.335302 -0.335302 -0.335302 -0.335302 -0.335302 -0.335302 -0.335302 -0.335302 -0.335302 -0.335302 -0.335302 -0.335302 -0.335302 -0.335302 -0.335302 -0.335302 -0.335302 -0.335302 -0.335302 -0.335302 -0.335302 -0.335302 -0.335302 -0.335302 -0.335302 -0.335302 -0.335302 -0.335302 -0.335302 -0.335302 -0.335302 -0.335302 -0.335302 -0.335302 -0.335302 -0.335302 -0.335302 -0.335302 -0.335302 -0.335302 -0.335302 -0.335302 -0.335302 -0.335302 -0.335302 -0.335302 -0.335302 -0.335302 -0.335302 -0.335302 -0.335302 -0.335302 -0.335302 -0.335302 -0.335302 -0.335302 -0.335302 -0.335302 -0.335302 -0.335302 -0.335302 -0.335302 -0.335302 -0.335302 -0.335302 -0.335302 -0.335302 -0.335302 -0.335302 -0.335302 -0.335302 -0.335302 -0.335302 -0.335302 -0.335302 -0.335302 -0.335302 -0.335302 -0.335302 -0.335302 -0.335302 -0.335302 -0.335302 -0.335302 -0.335302 -0.335302 -0.335302 -0.335302 -0.335302 -0.335302 -0.335302 -0.335302 -0.335302 -0.335302 -0.335302 -0.335302 -0.335302 -0.335302 -0.335302 -0.335302 -0.335302 -0.335302 -0.335302 -0.335302 -0.335302 -0.335302 -0.335302 -0.335302 -0.335302 -0.335302 -0.335302 -0.335302 -0.335302 -0.335302 -0.335302 -0.335302 -0.335302 -0.335302 
</DataArray>
<DataArray Name="Strain_22" format="ascii" type="Float64">
-0.335302 -0.335302 -0.335302 -0.335302 -0.335302 -0.335302 -0.335302 -0.335302 -0.335302 -0.335302 -0.335302 -0.335302 -0.335302 -0.335302 -0.335302 -0.335302 -0.335302 -0.335302 -0.335302 -0.335302 -0.335302 -0.335302 -0.335302 -0.335302 -0.335302 -0.335302 -0.335302 -0.335302 -0.335302 -0.335302 -0.335302 -0.335302 -0.335302 -0.335302 -0.335302 -0.335302 -0.335302 -0.335302 -0.335302 -0.335302 -0.335302 -0.335302 -0.335302 -0.335302 -0.335302 -0.335302 -0.335302 -0.335302 -0.335302 -0.335302 -0.335302 -0.335302 -0.335302 -0.335302 -0.335302 -0.335302 -0.335302 -0.335302 -0.335302 -0.335302 -0.335302 -0.335302 -0.335302 -0.335302 -0.335302 -0.335302 -0.335302 -0.335302 -0.335302 -0.335302 -0.335302 -0.335302 -0.335302 -0.335302 -0.335302 -0.335302 -0.335302 -0.335302 -0.335302 -0.335302 -0.335302 -0.335302 -0.335302 -0.335302 -0.335302 -0.335302 -0.335302 -0.335302 -0.335302 -0.335302 -0.335302 -0.335302 -0.335302 -0.335302 -0.335302 -0.335302 -0.335302 -0.335302 -0.335302 -0.335302 -0.335302 -0.335302 -0.335302 -0.335302 -0.335302 -0.335302 -0.335302 -0.335302 -0.335302 -0.335302 -0.335302 -0.335302 -0.335302 -0.335302 -0.335302 -0.335302 -0.335302 -0.335302 -0.335302 -0.335302 -0.335302 -0.335302 -0.335302 -0.335302 -0.335302 -0.335302 -0.335302 -0.335302 -0.335302 -0.335302 -0.335302 -0.335302 -0.335302 -0.335302 -0.335302 -0.335302 -0.335302 -0.335302 -0.335302 -0.335302 -0.335302 -0.335302 -0.335302 -0.335302 -0.335302 -0.335302 -0.335302 -0.335302 -0.335302 -0.335302 -0.335302 -0.335302 -0.335302 -0.335302 -0.335302 -0.335302 -0.335302 -0.335302 -0.335302 -0.335302 -0.335302 -0.335302 -0.335302 -0.335302 -0.335302 -0.335302 -0.335302 -0.335302 -0.335302 -0.335302 -0.335302 -0.335302 -0.335302 -0.335302 -0.335302 -0.335302 -0.335302 -0.335302 -0.335302 -0.335302 -0.335302 -0.335302 -0.335302 -0.335302 -0.335302 -0.335302 -0.335302 -0.335302 -0.335302 -0.335302 -0.335302 -0.335302 -0.335302 -0.335302 -0.335302 -0.335302 -0.335302 -0.335302 -0.335302 -0.335302 -0.335302 -0.335302 -0.335302 -0.335302 -0.335302 -0.335302 -0.335302 -0.335302 -0.335302 -0.335302 -0.335302 -0.335302 -0.335302 -0.335302 -0.335302 -0.335302 -0.335302 -0.335302 -0.335302 -0.335302 -0.335302 -0.335302 -0.335302 -0.335302 -0.335302 -0.335302 -0.335302 -0.335302 -0.335302 -0.335302 -0.335302 -0.335302 -0.335302 -0.335302 -0.335302 -0.335302 -0.335302 -0.335302 -0.335302 -0.335302 -0.335302 -0.335302 -0.335302 -0.335302 -0.335302 -0.335302 -0.335302 -0.335302 -0.335302 -0.335302 -0.335302 -0.335302 -0.335302 -0.335302 -0.335302 -0.335302 -0.335302 -0.335302 -0.335302 -0.335302 -0.335302 -0.335302 -0.335302 -0.335302 -0.335302 -0.335302 -0.335302 -0.335302 -0.335302 -0.335302 -0.335302 -0.335302 -0.335302 -0.335302 -0.335302 -0.335302 -0.335302 -0.335302 -0.335302 -0.335302 -0.335302 -0.335302 -0.335302 -0.335302 -0.335302 -0.335302 -0.335302 -0.335302 
</DataArray>
<DataArray Name="Strain_12" format="ascii" type="Float64">
-9.3115e-15 -2.09915e-14 -2.04349e-14 -2.11726e-14 -1.96194e-14 -1.97246e-14 -1.89196e-14 -1.94421e-14 -1.19222e-14 -4.82433e-15 6.74137e-15 2.31282e-14 -7.43999e-15 -6.72417e-15 9.68011e-15 1.27729e-14 2.07083e-14 1.50376e-14 7.25222e-15 7.59242e-16 3.05679e-15 6.2211e-16 1.25644e-15 -5.00802e-15 3.20196e-16 9.04713e-15 3.20309e-14 3.42627e-14 4.20699e-14 3.01213e-14 2.38713e-14 1.85282e-14 1.69058e-14 4.61882e-15 -8.56202e-15 -2.77632e-14 3.89589e-14 5.4154e-14 6.19709e-14 6.50242e-14 6.40527e-14 6.35134e-14 5.68431e-14 5.01104e-14 3.69755e-14 2.90581e-14 1.99507e-14 1.85627e-14 -5.51111e-15 -5.14241e-15 -7.5131e-15 -7.80993e-15 -7.08573e-15 -2.31857e-15 3.41754e-16 7.58163e-15 1.39141e-14 2.41582e-14 2.27286e-14 3.0048e-14 -4.50851e-14 -5.52617e-14 -6.46227e-14 -7.24449e-14 -7.07506e-14 -6.31835e-14 -5.26682e-14 -3.73841e-14 -1.97454e-14 -1.12792e-15 6.49961e-15 1.80835e-14 1.94486e-14 2.08085e-14 1.86998e-14 1.68675e-14 2.16084e-14 2.89901e-14 2.51563e-14 2.48992e-14 1.89582e-14 7.83025e-15 -8.13465e-15 -2.08246e-14 2.80615e-14 2.08292e-14 5.05276e-15 -5.70823e-15 -4.03546e-15 -8.90931e-16 -6.45852e-15 -1.37202e-15 -4.69722e-15 -7.56264e-15 -4.08055e-15 2.85739e-15 1.37943e-14 5.84535e-15 -1.21285e-14 -2.27936e-14 -2.33994e-14 -2.39935e-14 -2.72487e-14 -2.53993e-14 -2.49641e-14 -1.64173e-14 2.84125e-15 2.05793e-14 -3.31017e-14 -4.13898e-14 -3.98038e-14 -4.15248e-14 -3.9083e-14 -4.38554e-14 -4.37104e-14 -3.97985e-14 -2.65359e-14 -2.27317e-14 -1.48246e-14 -1.90267e-14 1.05045e-15 -4.52287e-16 -6.94649e-16 3.96023e-15 9.16264e-15 5.09659e-15 -4.70494e-15 -1.2178e-14 -1.92084e-14 -2.73029e-14 -2.28688e-14 -3.35609e-14 3.13547e-14 3.36146e-14 3.33774e-14 4.03668e-14 4.80309e-14 4.60043e-14 3.40981e-14 2.00846e-14 4.66e-15 -9.72526e-15 -1.35789e-14 -2.11526e-14 -2.45479e-14 -3.35109e-14 -4.26914e-14 -4.54463e-14 -5.44376e-14 -6.02422e-14 -6.28002e-14 -6.35889e-14 -5.69035e-14 -4.35046e-14 -3.59674e-14 -1.85489e-14 -3.00488e-14 -2.92698e-14 -1.49662e-14 -2.53427e-15 7.35302e-15 1.15379e-14 1.26903e-14 9.87688e-15 1.03745e-14 1.26249e-14 6.01608e-15 1.49454e-15 -1.35331e-14 -3.24459e-15 2.18823e-14 4.29655e-14 6.10156e-14 6.87439e-14 7.30293e-14 7.20898e-14 6.91202e-14 5.82065e-14 4.11736e-14 1.93801e-14 -1.85168e-17 1.41149e-14 2.17166e-14 2.44867e-14 2.77189e-14 3.50032e-14 3.51869e-14 3.55132e-14 2.78967e-14 1.71557e-14 1.27099e-14 8.59796e-15 1.61013e-15 -2.79208e-16 -5.78789e-15 -7.05116e-15 -9.87866e-15 -7.31655e-15 -7.67886e-15 -4.98579e-15 -3.84516e-15 -4.62396e-15 -8.46252e-15 1.05266e-14 -1.60248e-15 -1.14223e-14 -2.35709e-14 -3.12745e-14 -3.80416e-14 -4.01117e-14 -3.8497e-14 -3.53962e-14 -3.0081e-14 -2.18899e-14 -2.09205e-14 4.62721e-15 2.3213e-15 -3.29196e-15 -8.5655e-15 -1.00426e-14 -1.49358e-14 -1.22353e-14 -1.62125e-14 -1.03647e-14 -1.05378e-14 -1.15728e-14 -7.04096e-15 -7.0631e-15 1.06878e-14 1.26294e-14 1.04303e-14 8.47721e-15 2.97181e-15 1.21129e-15 3.26409e-16 3.05209e-15 -1.67415e-15 -6.90656e-15 -3.5619e-15 -1.59696e-15 8.56599e-15 1.7558e-14 1.92333e-14 1.92536e-14 1.66061e-14 1.45297e-14 1.3971e-14 1.17024e-14 2.22851e-15 1.024e-15 1.32989e-16 1.99438e-15 -8.52745e-15 -1.04157e-14 -5.37943e-15 1.56825e-15 8.79763e-15 1.20546e-14 1.80843e-14 1.50748e-14 1.66403e-14 1.74789e-14 8.66177e-15 -3.99402e-15 -2.97072e-15 -4.70865e-15 -4.58562e-15 -7.52515e-15 -9.66432e-15 -1.16291e-14 -1.01613e-14 -1.26608e-14 -7.26593e-15 -5.3259e-15 -4.1041e-15 -1.18062e-14 1.55116e-15 8.08142e-16 -3.00906e-15 -1.00779e-14 -1.69323e-14 -2.45924e-14 -2.63231e-14 -3.11311e-14 -2.47513e-14 -1.8461e-14 -1.27241e-14 -1.25655e-14 
</DataArray>
<DataArray Name="Strain_13" format="ascii" type="Float64">
0 0 0 0 0 0 0 0 0 0 0 0 0 0 0 0 0 0 0 0 0 0 0 0 0 0 0 0 0 0 0 0 0 0 0 0 0 0 0 0 0 0 0 0 0 0 0 0 0 0 0 0 0 0 0 0 0 0 0 0 0 0 0 0 0 0 0 0 0 0 0 0 0 0 0 0 0 0 0 0 0 0 0 0 0 0 0 0 0 0 0 0 0 0 0 0 0 0 0 0 0 0 0 0 0 0 0 0 0 0 0 0 0 0 0 0 0 0 0 0 0 0 0 0 0 0 0 0 0 0 0 0 0 0 0 0 0 0 0 0 0 0 0 0 0 0 0 0 0 0 0 0 0 0 0 0 0 0 0 0 0 0 0 0 0 0 0 0 0 0 0 0 0 0 0 0 0 0 0 0 0 0 0 0 0 0 0 0 0 0 0 0 0 0 0 0 0 0 0 0 0 0 0 0 0 0 0 0 0 0 0 0 0 0 0 0 0 0 0 0 0 0 0 0 0 0 0 0 0 0 0 0 0 0 0 0 0 0 0 0 0 0 0 0 0 0 0 0 0 0 0 0 0 0 0 0 0 0 0 0 0 0 0 0 0 0 0 0 0 0 0 0 0 0 0 0 0 0 0 0 0 0 0 0 0 0 0 0 
</DataArray>
<DataArray Name="Strain_23" format="ascii" type="Float64">
0 0 0 0 0 0 0 0 0 0 0 0 0 0 0 0 0 0 0 0 0 0 0 0 0 0 0 0 0 0 0 0 0 0 0 0 0 0 0 0 0 0 0 0 0 0 0 0 0 0 0 0 0 0 0 0 0 0 0 0 0 0 0 0 0 0 0 0 0 0 0 0 0 0 0 0 0 0 0 0 0 0 0 0 0 0 0 0 0 0 0 0 0 0 0 0 0 0 0 0 0 0 0 0 0 0 0 0 0 0 0 0 0 0 0 0 0 0 0 0 0 0 0 0 0 0 0 0 0 0 0 0 0 0 0 0 0 0 0 0 0 0 0 0 0 0 0 0 0 0 0 0 0 0 0 0 0 0 0 0 0 0 0 0 0 0 0 0 0 0 0 0 0 0 0 0 0 0 0 0 0 0 0 0 0 0 0 0 0 0 0 0 0 0 0 0 0 0 0 0 0 0 0 0 0 0 0 0 0 0 0 0 0 0 0 0 0 0 0 0 0 0 0 0 0 0 0 0 0 0 0 0 0 0 0 0 0 0 0 0 0 0 0 0 0 0 0 0 0 0 0 0 0 0 0 0 0 0 0 0 0 0 0 0 0 0 0 0 0 0 0 0 0 0 0 0 0 0 0 0 0 0 0 0 0 0 0 0 
</DataArray>
<DataArray Name="Strain_33" format="ascii" type="Float64">
1 1 1 1 1 1 1 1 1 1 1 1 1 1 1 1 1 1 1 1 1 1 1 1 1 1 1 1 1 1 1 1 1 1 1 1 1 1 1 1 1 1 1 1 1 1 1 1 1 1 1 1 1 1 1 1 1 1 1 1 1 1 1 1 1 1 1 1 1 1 1 1 1 1 1 1 1 1 1 1 1 1 1 1 1 1 1 1 1 1 1 1 1 1 1 1 1 1 1 1 1 1 1 1 1 1 1 1 1 1 1 1 1 1 1 1 1 1 1 1 1 1 1 1 1 1 1 1 1 1 1 1 1 1 1 1 1 1 1 1 1 1 1 1 1 1 1 1 1 1 1 1 1 1 1 1 1 1 1 1 1 1 1 1 1 1 1 1 1 1 1 1 1 1 1 1 1 1 1 1 1 1 1 1 1 1 1 1 1 1 1 1 1 1 1 1 1 1 1 1 1 1 1 1 1 1 1 1 1 1 1 1 1 1 1 1 1 1 1 1 1 1 1 1 1 1 1 1 1 1 1 1 1 1 1 1 1 1 1 1 1 1 1 1 1 1 1 1 1 1 1 1 1 1 1 1 1 1 1 1 1 1 1 1 1 1 1 1 1 1 1 1 1 1 1 1 1 1 1 1 1 1 1 1 1 1 1 1 
</DataArray>
<DataArray Name="Stress_11" format="ascii" type="Float64">
-18.792 -18.792 -18.792 -18.792 -18.792 -18.792 -18.792 -18.792 -18.792 -18.792 -18.792 -18.792 -18.792 -18.792 -18.792 -18.792 -18.792 -18.792 -18.792 -18.792 -18.792 -18.792 -18.792 -18.792 -18.792 -18.792 -18.792 -18.792 -18.792 -18.792 -18.792 -18.792 -18.792 -18.792 -18.792 -18.792 -18.792 -18.792 -18.792 -18.792 -18.792 -18.792 -18.792 -18.792 -18.792 -18.792 -18.792 -18.792 -18.792 -18.792 -18.792 -18.792 -18.792 -18.792 -18.792 -18.792 -18.792 -18.792 -18.792 -18.792 -18.792 -18.792 -18.792 -18.792 -18.792 -18.792 -18.792 -18.792 -18.792 -18.792 -18.792 -18.792 -18.792 -18.792 -18.792 -18.792 -18.792 -18.792 -18.792 -18.792 -18.792 -18.792 -18.792 -18.792 -18.792 -18.792 -18.792 -18.792 -18.792 -18.792 -18.792 -18.792 -18.792 -18.792 -18.792 -18.792 -18.792 -18.792 -18.792 -18.792 -18.792 -18.792 -18.792 -18.792 -18.792 -18.792 -18.792 -18.792 -18.792 -18.792 -18.792 -18.792 -18.792 -18.792 -18.792 -18.792 -18.792 -18.792 -18.792 -18.792 -18.792 -18.792 -18.792 -18.792 -18.792 -18.792 -18.792 -18.792 -18.792 -18.792 -18.792 -18.792 -18.792 -18.792 -18.792 -18.792 -18.792 -18.792 -18.792 -18.792 -18.792 -18.792 -18.792 -18.792 -18.792 -18.792 -18.792 -18.792 -18.792 -18.792 -18.792 -18.792 -18.792 -18.792 -18.792 -18.792 -18.792 -18.792 -18.792 -18.792 -18.792 -18.792 -18.792 -18.792 -18.792 -18.792 -18.792 -18.792 -18.792 -18.792 -18.792 -18.792 -18.792 -18.792 -18.792 -18.792 -18.792 -18.792 -18.792 -18.792 -18.792 -18.792 -18.792 -18.792 -18.792 -18.792 -18.792 -18.792 -18.792 -18.792 -18.792 -18.792 -18.792 -18.792 -18.792 -18.792 -18.792 -18.792 -18.792 -18.792 -18.792 -18.792 -18.792 -18.792 -18.792 -18.792 -18.792 -18.792 -18.792 -18.792 -18.792 -18.792 -18.792 -18.792 -18.792 -18.792 -18.792 -18.792 -18.792 -18.792 -18.792 -18.792 -18.792 -18.792 -18.792 -18.792 -18.792 -18.792 -18.792 -18.792 -18.792 -18.792 -18.792 -18.792 -18.792 -18.792 -18.792 -18.792 -18.792 -18.792 -18.792 -18.792 -18.792 -18.792 -18.792 -18.792 -18.792 -18.792 -18.792 -18.792 -18.792 -18.792 -18.792 -18.792 -18.792 -18.792 -18.792 -18.792 -18.792 -18.792 -18.792 -18.792 -18.792 -18.792 -18.792 -18.792 -18.792 -18.792 -18.792 -18.792 -18.792 -18.792 -18.792 -18.792 -18.792 -18.792 -18.792 -18.792 -18.792 -18.792 -18.792 -18.792 -18.792 -18.792 -18.792 -18.792 -18.792 -18.792 
</DataArray>
<DataArray Name="Stress_22" format="ascii" type="Float64">
-18.792 -18.792 -18.792 -18.792 -18.792 -18.792 -18.792 -18.792 -18.792 -18.792 -18.792 -18.792 -18.792 -18.792 -18.792 -18.792 -18.792 -18.792 -18.792 -18.792 -18.792 -18.792 -18.792 -18.792 -18.792 -18.792 -18.792 -18.792 -18.792 -18.792 -18.792 -18.792 -18.792 -18.792 -18.792 -18.792 -18.792 -18.792 -18.792 -18.792 -18.792 -18.792 -18.792 -18.792 -18.792 -18.792 -18.792 -18.792 -18.792 -18.792 -18.792 -18.792 -18.792 -18.792 -18.792 -18.792 -18.792 -18.792 -18.792 -18.792 -18.792 -18.792 -18.792 -18.792 -18.792 -18.792 -18.792 -18.792 -18.792 -18.792 -18.792 -18.792 -18.792 -18.792 -18.792 -18.792 -18.792 -18.792 -18.792 -18.792 -18.792 -18.792 -18.792 -18.792 -18.792 -18.792 -18.792 -18.792 -18.792 -18.792 -18.792 -18.792 -18.792 -18.792 -18.792 -18.792 -18.792 -18.792 -18.792 -18.792 -18.792 -18.792 -18.792 -18.792 -18.792 -18.792 -18.792 -18.792 -18.792 -18.792 -18.792 -18.792 -18.792 -18.792 -18.792 -18.792 -18.792 -18.792 -18.792 -18.792 -18.792 -18.792 -18.792 -18.792 -18.792 -18.792 -18.792 -18.792 -18.792 -18.792 -18.792 -18.792 -18.792 -18.792 -18.792 -18.792 -18.792 -18.792 -18.792 -18.792 -18.792 -18.792 -18.792 -18.792 -18.792 -18.792 -18.792 -18.792 -18.792 -18.792 -18.792 -18.792 -18.792 -18.792 -18.792 -18.792 -18.792 -18.792 -18.792 -18.792 -18.792 -18.792 -18.792 -18.792 -18.792 -18.792 -18.792 -18.792 -18.792 -18.792 -18.792 -18.792 -18.792 -18.792 -18.792 -18.792 -18.792 -18.792 -18.792 -18.792 -18.792 -18.792 -18.792 -18.792 -18.792 -18.792 -18.792 -18.792 -18.792 -18.792 -18.792 -18.792 -18.792 -18.792 -18.792 -18.792 -18.792 -18.792 -18.792 -18.792 -18.792 -18.792 -18.792 -18.792 -18.792 -18.792 -18.792 -18.792 -18.792 -18.792 -18.792 -18.792 -18.792 -18.792 -18.792 -18.792 -18.792 -18.792 -18.792 -18.792 -18.792 -18.792 -18.792 -18.792 -18.792 -18.792 -18.792 -18.792 -18.792 -18.792 -18.792 -18.792 -18.792 -18.792 -18.792 -18.792 -18.792 -18.792 -18.792 -18.792 -18.792 -18.792 -18.792 -18.792 -18.792 -18.792 -18.792 -18.792 -18.792 -18.792 -18.792 -18.792 -18.792 -18.792 -18.792 -18.792 -18.792 -18.792 -18.792 -18.792 -18.792 -18.792 -18.792 -18.792 -18.792 -18.792 -18.792 -18.792 -18.792 -18.792 -18.792 -18.792 -18.792 -18.792 -18.792 -18.792 -18.792 -18.792 -18.792 -18.792 -18.792 -18.792 -18.792 -18.792 -18.792 -18.792 -18.792 -18.792 
</DataArray>
<DataArray Name="Stress_12" format="ascii" type="Float64">