<?xml version="1.0"?>
<VTKFile byte_order="LittleEndian" type="UnstructuredGrid" version="0.1">
<UnstructuredGrid>
<Piece NumberOfCells="100" NumberOfPoints="121">
<PointData>
<DataArray Name="Warping_X" format="ascii" type="Float64">
-0.0732716 0.210815 0.028537 0.108267 0.165235 0.19942 0.0492136 0.152625 0.107373 0.0750581 0.055674 -0.23558 0.0378271 0.00367076 -0.0532477 -0.132949 -0.229087 -0.209607 -0.177129 -0.131651 -0.0296245 0.0500731 0.107045 0.14123 -0.0747944 0.00485107 0.0618022 0.0959797 -0.107094 -0.0274264 0.0295017 0.0636682 -0.126484 -0.0467924 0.0101279 0.0442866 -0.0732716 0.19942 0.165235 0.108267 0.028537 -0.23558 -0.131651 -0.177129 -0.209607 -0.229087 -0.132949 -0.0532477 0.00367076 0.0378271 0.14123 0.107045 0.0500731 -0.0296245 0.0959797 0.0618022 0.00485107 -0.0747944 0.0636682 0.0295017 -0.0274264 -0.107094 0.0442866 0.0101279 -0.0467924 -0.126484 0.210815 0.055674 0.0750581 0.107373 0.152625 -0.0732716 0.19942 0.165235 0.108267 0.028537 -0.131651 -0.177129 -0.209607 -0.229087 -0.126484 -0.0467924 0.0101279 0.0442866 -0.107094 -0.0274264 0.0295017 0.0636682 -0.0747944 0.00485107 0.0618022 0.0959797 -0.0296245 0.0500731 0.107045 0.14123 -0.0732716 -0.229087 -0.209607 -0.177129 -0.131651 0.028537 0.108267 0.165235 0.19942 0.0442866 0.0101279 -0.0467924 -0.126484 0.0636682 0.0295017 -0.0274264 -0.107094 0.0959797 0.0618022 0.00485107 -0.0747944 0.14123 0.107045 0.0500731 -0.0296245 
</DataArray>
<DataArray Name="Warping_Y" format="ascii" type="Float64">
0.568179 1.7466e-16 0.455212 0.341625 0.227804 0.113913 1.06491e-17 4.75947e-17 2.14165e-17 2.7442e-17 1.70702e-17 1.24421e-16 4.42297e-17 8.22248e-17 1.11453e-16 1.35145e-16 0.114185 0.228315 0.342295 0.456033 0.364569 0.273394 0.182272 0.0911393 0.273755 0.205215 0.136776 0.0683807 0.182606 0.136901 0.0912353 0.0456087 0.0913316 0.068475 0.0456347 0.0228123 -0.568179 -0.113913 -0.227804 -0.341625 -0.455212 -1.10247e-16 -0.456033 -0.342295 -0.228315 -0.114185 -1.01948e-16 -7.65868e-17 -4.38846e-17 -1.75494e-17 -0.0911393 -0.182272 -0.273394 -0.364569 -0.0683807 -0.136776 -0.205215 -0.273755 -0.0456087 -0.0912353 -0.136901 -0.182606 -0.0228123 -0.0456347 -0.068475 -0.0913316 -9.87873e-17 -1.42825e-18 -3.60131e-17 -6.02202e-17 -7.71972e-17 -0.568179 -0.113913 -0.227804 -0.341625 -0.455212 -0.456033 -0.342295 -0.228315 -0.114185 -0.0913316 -0.068475 -0.0456347 -0.0228123 -0.182606 -0.136901 -0.0912353 -0.0456087 -0.273755 -0.205215 -0.136776 -0.0683807 -0.364569 -0.273394 -0.182272 -0.0911393 0.568179 0.114185 0.228315 0.342295 0.456033 0.455212 0.341625 0.227804 0.113913 0.0228123 0.0456347 0.068475 0.0913316 0.0456087 0.0912353 0.136901 0.182606 0.0683807 0.136776 0.205215 0.273755 0.0911393 0.182272 0.273394 0.364569 
</DataArray>
<DataArray Name="Warping_Z" format="ascii" type="Float64">
0 0 0 0 0 0 0 0 0 0 0 0 0 0 0 0 0 0 0 0 0 0 0 0 0 0 0 0 0 0 0 0 0 0 0 0 0 0 0 0 0 0 0 0 0 0 0 0 0 0 0 0 0 0 0 0 0 0 0 0 0 0 0 0 0 0 0 0 0 0 0 0 0 0 0 0 0 0 0 0 0 0 0 0 0 0 0 0 0 0 0 0 0 0 0 0 0 0 0 0 0 0 0 0 0 0 0 0 0 0 0 0 0 0 0 0 0 0 0 0 0 
</DataArray>
</PointData>
<CellData>
<DataArray Name="MaterialId" format="ascii" type="Float64">
3 3 3 3 3 3 3 3 3 3 3 3 3 3 3 3 3 3 3 3 3 3 3 3 3 3 3 3 3 3 3 3 3 3 3 3 3 3 3 3 3 3 3 3 3 3 3 3 3 3 3 3 3 3 3 3 3 3 3 3 3 3 3 3 3 3 3 3 3 3 3 3 3 3 3 3 3 3 3 3 3 3 3 3 3 3 3 3 3 3 3 3 3 3 3 3 3 3 3 3 
</DataArray>
<DataArray Name="FiberAngle" format="ascii" type="Float64">
67.5 67.5 67.5 67.5 67.5 67.5 67.5 67.5 67.5 67.5 67.5 67.5 67.5 67.5 67.5 67.5 67.5 67.5 67.5 67.5 67.5 67.5 67.5 67.5 67.5 67.5 67.5 67.5 67.5 67.5 67.5 67.5 67.5 67.5 67.5 67.5 67.5 67.5 67.5 67.5 67.5 67.5 67.5 67.5 67.5 67.5 67.5 67.5 67.5 67.5 67.5 67.5 67.5 67.5 67.5 67.5 67.5 67.5 67.5 67.5 67.5 67.5 67.5 67.5 67.5 67.5 67.5 67.5 67.5 67.5 67.5 67.5 67.5 67.5 67.5 67.5 67.5 67.5 67.5 67.5 67.5 67.5 67.5 67.5 67.5 67.5 67.5 67.5 67.5 67.5 67.5 67.5 67.5 67.5 67.5 67.5 67.5 67.5 67.5 67.5 
</DataArray>
<DataArray Name="Strain_11" format="ascii" type="Float64">
-5.82702 -4.53242 -3.23887 -1.94353 -0.647877 -5.81775 -4.5196 -3.22887 -1.9378 -0.646012 -5.8192 -4.52323 -3.2289 -1.93699 -0.645627 -5.81904 -4.52464 -3.2306 -1.93777 -0.645835 -5.81902 -4.52513 -3.23132 -1.93828 -0.645997 -5.81902 -4.52513 -3.23132 -1.93828 -0.645997 -5.81904 -4.52464 -3.2306 -1.93777 -0.645835 -5.8192 -4.52323 -3.2289 -1.93699 -0.645627 -5.81775 -4.5196 -3.22887 -1.9378 -0.646012 -5.82702 -4.53242 -3.23887 -1.94353 -0.647877 0.647877 1.94353 3.23887 4.53242 5.82702 0.646012 1.9378 3.22887 4.5196 5.81775 0.645627 1.93699 3.2289 4.52323 5.8192 0.645835 1.93777 3.2306 4.52464 5.81904 0.645997 1.93828 3.23132 4.52513 5.81902 0.645997 1.93828 3.23132 4.52513 5.81902 0.645835 1.93777 3.2306 4.52464 5.81904 0.645627 1.93699 3.2289 4.52323 5.8192 0.646012 1.9378 3.22887 4.5196 5.81775 0.647877 1.94353 3.23887 4.53242 5.82702 
</DataArray>
<DataArray Name="Strain_22" format="ascii" type="Float64">
-10.2216 -8.00018 -5.71244 -3.42811 -1.14267 -10.238 -7.98569 -5.71219 -3.42805 -1.14283 -10.2472 -7.97811 -5.7053 -3.42532 -1.14201 -10.2512 -7.97639 -5.70107 -3.42245 -1.14112 -10.2526 -7.976 -5.69947 -3.42105 -1.14062 -10.2526 -7.976 -5.69947 -3.42105 -1.14062 -10.2512 -7.97639 -5.70107 -3.42245 -1.14112 -10.2472 -7.97811 -5.7053 -3.42532 -1.14201 -10.238 -7.98569 -5.71219 -3.42805 -1.14283 -10.2216 -8.00018 -5.71244 -3.42811 -1.14267 1.14267 3.42811 5.71244 8.00018 10.2216 1.14283 3.42805 5.71219 7.98569 10.238 1.14201 3.42532 5.7053 7.97811 10.2472 1.14112 3.42245 5.70107 7.97639 10.2512 1.14062 3.42105 5.69947 7.976 10.2526 1.14062 3.42105 5.69947 7.976 10.2526 1.14112 3.42245 5.70107 7.97639 10.2512 1.14201 3.42532 5.7053 7.97811 10.2472 1.14283 3.42805 5.71219 7.98569 10.238 1.14267 3.42811 5.71244 8.00018 10.2216 
</DataArray>
<DataArray Name="Strain_12" format="ascii" type="Float64">
0.0522481 -0.00955586 -0.0141163 -0.0144359 -0.01414 0.0276697 0.0175095 -0.00748339 -0.0170372 -0.0206586 0.0088598 0.0123649 0.00124648 -0.00892727 -0.0135439 0.00323097 0.00537192 0.00158424 -0.00358426 -0.00660286 0.000812831 0.00149646 0.000560505 -0.000949556 -0.00192024 -0.000812831 -0.00149646 -0.000560505 0.000949556 0.00192024 -0.00323097 -0.00537192 -0.00158424 0.00358426 0.00660286 -0.0088598 -0.0123649 -0.00124648 0.00892727 0.0135439 -0.0276697 -0.0175095 0.00748339 0.0170372 0.0206586 -0.0522481 0.00955586 0.0141163 0.0144359 0.01414 -0.01414 -0.0144359 -0.0141163 -0.00955586 0.0522481 -0.0206586 -0.0170372 -0.00748339 0.0175095 0.0276697 -0.0135439 -0.00892727 0.00124648 0.0123649 0.0088598 -0.00660286 -0.00358426 0.00158424 0.00537192 0.00323097 -0.00192024 -0.000949556 0.000560505 0.00149646 0.000812831 0.00192024 0.000949556 -0.000560505 -0.00149646 -0.000812831 0.00660286 0.00358426 -0.00158424 -0.00537192 -0.00323097 0.0135439 0.00892727 -0.00124648 -0.0123649 -0.0088598 0.0206586 0.0170372 0.00748339 -0.0175095 -0.0276697 0.01414 0.0144359 0.0141163 0.00955586 -0.0522481 
</DataArray>
<DataArray Name="Strain_13" format="ascii" type="Float64">
-4.54812 -3.54138 -2.52931 -1.5177 -0.505904 -4.55236 -3.54392 -2.53086 -1.51831 -0.506084 -4.55339 -3.54365 -2.5322 -1.5193 -0.506419 -4.55377 -3.54309 -2.53199 -1.51965 -0.506602 -4.55395 -3.54288 -2.53166 -1.51955 -0.506617 -4.55395 -3.54288 -2.53166 -1.51955 -0.506617 -4.55377 -3.54309 -2.53199 -1.51965 -0.506602 -4.55339 -3.54365 -2.5322 -1.5193 -0.506419 -4.55236 -3.54392 -2.53086 -1.51831 -0.506084 -4.54812 -3.54138 -2.52931 -1.5177 -0.505904 0.505904 1.5177 2.52931 3.54138 4.54812 0.506084 1.51831 2.53086 3.54392 4.55236 0.506419 1.5193 2.5322 3.54365 4.55339 0.506602 1.51965 2.53199 3.54309 4.55377 0.506617 1.51955 2.53166 3.54288 4.55395 0.506617 1.51955 2.53166 3.54288 4.55395 0.506602 1.51965 2.53199 3.54309 4.55377 0.506419 1.5193 2.5322 3.54365 4.55339 0.506084 1.51831 2.53086 3.54392 4.55236 0.505904 1.5177 2.52931 3.54138 4.54812 
</DataArray>
<DataArray Name="Strain_23" format="ascii" type="Float64">
0.00635669 0.000522593 -0.0021105 -0.00237093 -0.00239785 0.00253401 0.0015992 0.000147459 -0.00175557 -0.00252511 -7.64281e-05 9.0247e-05 0.000462759 3.63901e-05 -0.000512968 -0.000369445 -0.000352753 4.7323e-05 0.000330358 0.000344518 -0.000167005 -0.000152418 -1.4227e-05 0.000132425 0.000201225 0.000167005 0.000152418 1.4227e-05 -0.000132425 -0.000201225 0.000369445 0.000352753 -4.7323e-05 -0.000330358 -0.000344518 7.64281e-05 -9.0247e-05 -0.000462759 -3.63901e-05 0.000512968 -0.00253401 -0.0015992 -0.000147459 0.00175557 0.00252511 -0.00635669 -0.000522593 0.0021105 0.00237093 0.00239785 -0.00239785 -0.00237093 -0.0021105 0.000522593 0.00635669 -0.00252511 -0.00175557 0.000147459 0.0015992 0.00253401 -0.000512968 3.63901e-05 0.000462759 9.0247e-05 -7.64281e-05 0.000344518 0.000330358 4.7323e-05 -0.000352753 -0.000369445 0.000201225 0.000132425 -1.4227e-05 -0.000152418 -0.000167005 -0.000201225 -0.000132425 1.4227e-05 0.000152418 0.000167005 -0.000344518 -0.000330358 -4.7323e-05 0.000352753 0.000369445 0.000512968 -3.63901e-05 -0.000462759 -9.0247e-05 7.64281e-05 0.00252511 0.00175557 -0.000147459 -0.0015992 -0.00253401 0.00239785 0.00237093 0.0021105 -0.000522593 -0.00635669 
</DataArray>
<DataArray Name="Strain_33" format="ascii" type="Float64">
0.045 0.035 0.025 0.015 0.005 0.045 0.035 0.025 0.015 0.005 0.045 0.035 0.025 0.015 0.005 0.045 0.035 0.025 0.015 0.005 0.045 0.035 0.025 0.015 0.005 0.045 0.035 0.025 0.015 0.005 0.045 0.035 0.025 0.015 0.005 0.045 0.035 0.025 0.015 0.005 0.045 0.035 0.025 0.015 0.005 0.045 0.035 0.025 0.015 0.005 -0.005 -0.015 -0.025 -0.035 -0.045 -0.005 -0.015 -0.025 -0.035 -0.045 -0.005 -0.015 -0.025 -0.035 -0.045 -0.005 -0.015 -0.025 -0.035 -0.045 -0.005 -0.015 -0.025 -0.035 -0.045 -0.005 -0.015 -0.025 -0.035 -0.045 -0.005 -0.015 -0.025 -0.035 -0.045 -0.005 -0.015 -0.025 -0.035 -0.045 -0.005 -0.015 -0.025 -0.035 -0.045 -0.005 -0.015 -0.025 -0.035 -0.045 
</DataArray>
<DataArray Name="Stress_11" format="ascii" type="Float64">
-3123.43 -2431.47 -1737.24 -1042.46 -347.5 -3120.69 -2426.15 -1733.4 -1040.24 -346.779 -3121.67 -2427.33 -1733.33 -1039.93 -346.634 -3121.78 -2427.78 -1733.86 -1040.18 -346.708 -3121.84 -2427.94 -1734.06 -1040.33 -346.758 -3121.84 -2427.94 -1734.06 -1040.33 -346.758 -3121.78 -2427.78 -1733.86 -1040.18 -346.708 -3121.67 -2427.33 -1733.33 -1039.93 -346.634 -3120.69 -2426.15 -1733.4 -1040.24 -346.779 -3123.43 -2431.47 -1737.24 -1042.46 -347.5 347.5 1042.46 1737.24 2431.47 3123.43 346.779 1040.24 1733.4 2426.15 3120.69 346.634 1039.93 1733.33 2427.33 3121.67 346.708 1040.18 1733.86 2427.78 3121.78 346.758 1040.33 1734.06 2427.94 3121.84 346.758 1040.33 1734.06 2427.94 3121.84 346.708 1040.18 1733.86 2427.78 3121.78 346.634 1039.93 1733.33 2427.33 3121.67 346.779 1040.24 1733.4 2426.15 3120.69 347.5 1042.46 1737.24 2431.47 3123.43 
</DataArray>
<DataArray Name="Stress_22" format="ascii" type="Float64">
-1515.74 -1185.46 -846.545 -508.018 -169.336 -1517.59 -1183.15 -846.189 -507.825 -169.297 -1518.83 -1182.28 -845.287 -507.44 -169.177 -1519.35 -1182.1 -844.789 -507.09 -169.067 -1519.54 -1182.06 -844.603 -506.924 -169.006 -1519.54 -1182.06 -844.603 -506.924 -169.006 -1519.35 -1182.1 -844.789 -507.09 -169.067 -1518.83 -1182.28 -845.287 -507.44 -169.177 -1517.59 -1183.15 -846.189 -507.825 -169.297 -1515.74 -1185.46 -846.545 -508.018 -169.336 169.336 508.018 846.545 1185.46 1515.74 169.297 507.825 846.189 1183.15 1517.59 169.177 507.44 845.287 1182.28 1518.83 169.067 507.09 844.789 1182.1 1519.35 169.006 506.924 844.603 1182.06 1519.54 169.006 506.924 844.603 1182.06 1519.54 169.067 507.09 844.789 1182.1 1519.35 169.177 507.44 845.287 1182.28 1518.83 169.297 507.825 846.189 1183.15 1517.59 169.336 508.018 846.545 1185.46 1515.74 
</DataArray>
<DataArray Name="Stress_12" format="ascii" type="Float64">
3.08084 -0.557509 -0.833766 -0.853394 -0.836173 1.62862 1.03058 -0.437523 -1.00349 -1.21819 0.518343 0.724104 0.0745995 -0.522434 -0.794613 0.18782 0.313201 0.0929014 -0.208639 -0.385284 0.046989 0.0870573 0.0327592 -0.0551146 -0.111691 -0.046989 -0.0870573 -0.0327592 0.0551146 0.111691 -0.18782 -0.313201 -0.0929014 0.208639 0.385284 -0.518343 -0.724104 -0.0745995 0.522434 0.794613 -1.62862 -1.03058 0.437523 1.00349 1.21819 -3.08084 0.557509 0.833766 0.853394 0.836173 -0.836173 -0.853394 -0.833766 -0.557509 3.08084 -1.21819 -1.00349 -0.437523 1.03058 1.62862 -0.794613 -0.522434 0.0745995 0.724104 0.518343 -0.385284 -0.208639 0.0929014 0.313201 0.18782 -0.111691 -0.0551146 0.0327592 0.0870573 0.046989 0.111691 0.0551146 -0.0327592 -0.0870573 -0.046989 0.385284 0.208639 -0.0929014 -0.313201 -0.18782 0.794613 0.522434 -0.0745995 -0.724104 -0.518343 1.21819 1.00349 0.437523 -1.03058 -1.62862 0.836173 0.853394 0.833766 0.557509 -3.08084 
</DataArray>
<DataArray Name="Stress_13" format="ascii" type="Float64">
-1044.27 -812.567 -580.532 -348.351 -116.121 -1043.71 -811.51 -579.648 -347.817 -115.945 -1043.95 -811.871 -579.796 -347.835 -115.94 -1043.97 -811.964 -579.957 -347.955 -115.981 -1043.98 -811.994 -580 -348.001 -116 -1043.98 -811.994 -580 -348.001 -116 -1043.97 -811.964 -579.957 -347.955 -115.981 -1043.95 -811.871 -579.796 -347.835 -115.94 -1043.71 -811.51 -579.648 -347.817 -115.945 -1044.27 -812.567 -580.532 -348.351 -116.121 116.121 348.351 580.532 812.567 1044.27 115.945 347.817 579.648 811.51 1043.71 115.94 347.835 579.796 811.871 1043.95 115.981 347.955 579.957 811.964 1043.97 116 348.001 580 811.994 1043.98 116 348.001 580 811.994 1043.98 115.981 347.955 579.957 811.964 1043.97 115.94 347.835 579.796 811.871 1043.95 115.945 347.817 579.648 811.51 1043.71 116.121 348.351 580.532 812.567 1044.27 
</DataArray>
<DataArray Name="Stress_23" format="ascii" type="Float64">
0.511868 -0.0068901 -0.158524 -0.173057 -0.173397 0.228239 0.144207 -0.0188689 -0.150585 -0.202993 0.0273908 0.048361 0.0282226 -0.0296899 -0.0742845 -0.00759011 0.000838354 0.00803657 0.0043294 -0.00561422 -0.00572102 -0.00255334 0.0012495 0.00345798 0.00356688 0.00572102 0.00255334 -0.0012495 -0.00345798 -0.00356688 0.00759011 -0.000838354 -0.00803657 -0.0043294 0.00561422 -0.0273908 -0.048361 -0.0282226 0.0296899 0.0742845 -0.228239 -0.144207 0.0188689 0.150585 0.202993 -0.511868 0.0068901 0.158524 0.173057 0.173397 -0.173397 -0.173057 -0.158524 -0.0068901 0.511868 -0.202993 -0.150585 -0.0188689 0.144207 0.228239 -0.0742845 -0.0296899 0.0282226 0.048361 0.0273908 -0.00561422 0.0043294 0.00803657 0.000838354 -0.00759011 0.00356688 0.00345798 0.0012495 -0.00255334 -0.00572102 -0.00356688 -0.00345798 -0.0012495 0.00255334 0.00572102 0.00561422 -0.0043294 -0.00803657 -0.000838354 0.00759011 0.0742845 0.0296899 -0.0282226 -0.048361 -0.0273908 0.202993 0.150585 0.0188689 -0.144207 -0.228239 0.173397 0.173057 0.158524 0.0068901 -0.511868 
</DataArray>
<DataArray Name="Stress_33" format="ascii" type="Float64">
-876.015 -683.208 -488.033 -292.86 -97.6213 -876.027 -681.846 -487.346 -292.463 -97.4978 -876.475 -681.834 -487.14 -292.333 -97.4498 -876.613 -681.862 -487.109 -292.297 -97.4379 -876.666 -681.878 -487.096 -292.282 -97.4323 -876.666 -681.878 -487.096 -292.282 -97.4323 -876.613 -681.862 -487.109 -292.297 -97.4379 -876.475 -681.834 -487.14 -292.333 -97.4498 -876.027 -681.846 -487.346 -292.463 -97.4978 -876.015 -683.208 -488.033 -292.86 -97.6213 97.6213 292.86 488.033 683.208 876.015 97.4978 292.463 487.346 681.846 876.027 97.4498 292.333 487.14 681.834 876.475 97.4379 292.297 487.109 681.862 876.613 97.4323 292.282 487.096 681.878 876.666 97.4323 292.282 487.096 681.878 876.666 97.4379 292.297 487.109 681.862 876.613 97.4498 292.333 487.14 681.834 876.475 97.4978 292.463 487.346 681.846 876.027 97.6213 292.86 488.033 683.208 876.015 
</DataArray>
</CellData>
<Points>
<DataArray NumberOfComponents="3" format="ascii" type="Float64">
-0.05 -0.05 0 -0.05 0 0 -0.05 -0.04 0 -0.05 -0.03 0 -0.05 -0.02 0 -0.05 -0.01 0 0 0 0 -0.04 0 0 -0.03 0 0 -0.02 0 0 -0.01 0 0 0 -0.05 0 0 -0.01 0 0 -0.02 0 0 -0.03 0 0 -0.04 0 -0.01 -0.05 0 -0.02 -0.05 0 -0.03 -0.05 0 -0.04 -0.05 0 -0.04 -0.04 0 -0.04 -0.03 0 -0.04 -0.02 0 -0.04 -0.01 0 -0.03 -0.04 0 -0.03 -0.03 0 -0.03 -0.02 0 -0.03 -0.01 0 -0.02 -0.04 0 -0.02 -0.03 0 -0.02 -0.02 0 -0.02 -0.01 0 -0.01 -0.04 0 -0.01 -0.03 0 -0.01 -0.02 0 -0.01 -0.01 0 -0.05 0.05 0 -0.05 0.01 0 -0.05 0.02 0 -0.05 0.03 0 -0.05 0.04 0 0 0.05 0 -0.04 0.05 0 -0.03 0.05 0 -0.02 0.05 0 -0.01 0.05 0 0 0.04 0 0 0.03 0 0 0.02 0 0 0.01 0 -0.04 0.01 0 -0.04 0.02 0 -0.04 0.03 0 -0.04 0.04 0 -0.03 0.01 0 -0.03 0.02 0 -0.03 0.03 0 -0.03 0.04 0 -0.02 0.01 0 -0.02 0.02 0 -0.02 0.03 0 -0.02 0.04 0 -0.01 0.01 0 -0.01 0.02 0 -0.01 0.03 0 -0.01 0.04 0 0.05 0 0 0.01 0 0 0.02 0 0 0.03 0 0 0.04 0 0 0.05 -0.05 0 0.05 -0.01 0 0.05 -0.02 0 0.05 -0.03 0 0.05 -0.04 0 0.04 -0.05 0 0.03 -0.05 0 0.02 -0.05 0 0.01 -0.05 0 0.01 -0.04 0 0.01 -0.03 0 0.01 -0.02 0 0.01 -0.01 0 0.02 -0.04 0 0.02 -0.03 0 0.02 -0.02 0 0.02 -0.01 0 0.03 -0.04 0 0.03 -0.03 0 0.03 -0.02 0 0.03 -0.01 0 0.04 -0.04 0 0.04 -0.03 0 0.04 -0.02 0 0.04 -0.01 0 0.05 0.05 0 0.01 0.05 0 0.02 0.05 0 0.03 0.05 0 0.04 0.05 0 0.05 0.04 0 0.05 0.03 0 0.05 0.02 0 0.05 0.01 0 0.01 0.01 0 0.01 0.02 0 0.01 0.03 0 0.01 0.04 0 0.02 0.01 0 0.02 0.02 0 0.02 0.03 0 0.02 0.04 0 0.03 0.01 0 0.03 0.02 0 0.03 0.03 0 0.03 0.04 0 0.04 0.01 0 0.04 0.02 0 0.04 0.03 0 0.04 0.04 0 
</DataArray>
</Points>
<Cells>
<DataArray Name="connectivity" format="ascii" type="Int64">
0 19 20 2 19 18 24 20 18 17 28 24 17 16 32 28 16 11 15 32 2 20 21 3 20 24 25 21 24 28 29 25 28 32 33 29 32 15 14 33 3 21 22 4 21 25 26 22 25 29 30 26 29 33 34 30 33 14 13 34 4 22 23 5 22 26 27 23 26 30 31 27 30 34 35 31 34 13 12 35 5 23 7 1 23 27 8 7 27 31 9 8 31 35 10 9 35 12 6 10 1 7 50 37 7 8 54 50 8 9 58 54 9 10 62 58 10 6 49 62 37 50 51 38 50 54 55 51 54 58 59 55 58 62 63 59 62 49 48 63 38 51 52 39 51 55 56 52 55 59 60 56 59 63 64 60 63 48 47 64 39 52 53 40 52 56 57 53 56 60 61 57 60 64 65 61 64 47 46 65 40 53 42 36 53 57 43 42 57 61 44 43 61 65 45 44 65 46 41 45 11 79 80 15 79 78 84 80 78 77 88 84 77 76 92 88 76 71 75 92 15 80 81 14 80 84 85 81 84 88 89 85 88 92 93 89 92 75 74 93 14 81 82 13 81 85 86 82 85 89 90 86 89 93 94 90 93 74 73 94 13 82 83 12 82 86 87 83 86 90 91 87 90 94 95 91 94 73 72 95 12 83 67 6 83 87 68 67 87 91 69 68 91 95 70 69 95 72 66 70 6 67 105 49 67 68 109 105 68 69 113 109 69 70 117 113 70 66 104 117 49 105 106 48 105 109 110 106 109 113 114 110 113 117 118 114 117 104 103 118 48 106 107 47 106 110 111 107 110 114 115 111 114 118 119 115 118 103 102 119 47 107 108 46 107 111 112 108 111 115 116 112 115 119 120 116 119 102 101 120 46 108 97 41 108 112 98 97 112 116 99 98 116 120 100 99 120 101 96 100 
</DataArray>
<DataArray Name="offsets" format="ascii" type="Int64">
4 8 12 16 20 24 28 32 36 40 44 48 52 56 60 64 68 72 76 80 84 88 92 96 100 104 108 112 116 120 124 128 132 136 140 144 148 152 156 160 164 168 172 176 180 184 188 192 196 200 204 208 212 216 220 224 228 232 236 240 244 248 252 256 260 264 268 272 276 280 284 288 292 296 300 304 308 312 316 320 324 328 332 336 340 344 348 352 356 360 364 368 372 376 380 384 388 392 396 400 
</DataArray>
<DataArray Name="types" format="ascii" type="Int8">
9 9 9 9 9 9 9 9 9 9 9 9 9 9 9 9 9 9 9 9 9 9 9 9 9 9 9 9 9 9 9 9 9 9 9 9 9 9 9 9 9 9 9 9 9 9 9 9 9 9 9 9 9 9 9 9 9 9 9 9 9 9 9 9 9 9 9 9 9 9 9 9 9 9 9 9 9 9 9 9 9 9 9 9 9 9 9 9 9 9 9 9 9 9 9 9 9 9 9 9 
</DataArray>
</Cells>
</Piece>
</UnstructuredGrid>
</VTKFile>
