<?xml version="1.0"?>
<VTKFile byte_order="LittleEndian" type="UnstructuredGrid" version="0.1">
<UnstructuredGrid>
<Piece NumberOfCells="100" NumberOfPoints="121">
<PointData>
<DataArray Name="Warping_X" format="ascii" type="Float64">
0.0196409 0.0166171 0.0189368 0.0180496 0.0172765 0.0167838 6.68955e-18 0.0157811 0.0133238 0.00960498 0.00502209 -9.03452e-18 8.36333e-18 5.03153e-18 2.64242e-20 -5.53845e-18 0.00565937 0.0109193 0.0153603 0.0185019 0.018014 0.0171696 0.0164226 0.0159435 0.0151645 0.0144975 0.0138724 0.0134634 0.0108815 0.010443 0.0100014 0.00970648 0.0056694 0.00545526 0.00522899 0.00507529 0.0196409 0.0167838 0.0172765 0.0180496 0.0189368 -3.34755e-18 0.0185019 0.0153603 0.0109193 0.00565937 -2.04435e-18 -4.84304e-19 1.61511e-18 4.5115e-18 0.0159435 0.0164226 0.0171696 0.018014 0.0134634 0.0138724 0.0144975 0.0151645 0.00970648 0.0100014 0.010443 0.0108815 0.00507529 0.00522899 0.00545526 0.0056694 -0.0166171 -0.00502209 -0.00960498 -0.0133238 -0.0157811 -0.0196409 -0.0167838 -0.0172765 -0.0180496 -0.0189368 -0.0185019 -0.0153603 -0.0109193 -0.00565937 -0.0056694 -0.00545526 -0.00522899 -0.00507529 -0.0108815 -0.010443 -0.0100014 -0.00970648 -0.0151645 -0.0144975 -0.0138724 -0.0134634 -0.018014 -0.0171696 -0.0164226 -0.0159435 -0.0196409 -0.00565937 -0.0109193 -0.0153603 -0.0185019 -0.0189368 -0.0180496 -0.0172765 -0.0167838 -0.00507529 -0.00522899 -0.00545526 -0.0056694 -0.00970648 -0.0100014 -0.010443 -0.0108815 -0.0134634 -0.0138724 -0.0144975 -0.0151645 -0.0159435 -0.0164226 -0.0171696 -0.018014 
</DataArray>
<DataArray Name="Warping_Y" format="ascii" type="Float64">
-0.00607572 2.06119e-18 -0.00533968 -0.00436762 -0.00307766 -0.0015841 -6.68066e-18 -3.39745e-18 -6.99774e-18 -6.45816e-18 -7.3708e-18 -0.00685433 -0.00108489 -0.00225495 -0.00358953 -0.00513817 -0.00672807 -0.00638994 -0.00597173 -0.00570336 -0.00473354 -0.00367412 -0.00251627 -0.00127943 -0.00466563 -0.0034477 -0.00227781 -0.00113375 -0.004857 -0.00346497 -0.00222367 -0.00108621 -0.00505746 -0.00354943 -0.00224073 -0.00108204 0.00607572 0.0015841 0.00307766 0.00436762 0.00533968 0.00685433 0.00570336 0.00597173 0.00638994 0.00672807 0.00513817 0.00358953 0.00225495 0.00108489 0.00127943 0.00251627 0.00367412 0.00473354 0.00113375 0.00227781 0.0034477 0.00466563 0.00108621 0.00222367 0.00346497 0.004857 0.00108204 0.00224073 0.00354943 0.00505746 1.85965e-17 -5.16601e-18 -1.31811e-18 3.61514e-18 6.99351e-18 -0.00607572 -0.0015841 -0.00307766 -0.00436762 -0.00533968 -0.00570336 -0.00597173 -0.00638994 -0.00672807 -0.00505746 -0.00354943 -0.00224073 -0.00108204 -0.004857 -0.00346497 -0.00222367 -0.00108621 -0.00466563 -0.0034477 -0.00227781 -0.00113375 -0.00473354 -0.00367412 -0.00251627 -0.00127943 0.00607572 0.00672807 0.00638994 0.00597173 0.00570336 0.00533968 0.00436762 0.00307766 0.0015841 0.00108204 0.00224073 0.00354943 0.00505746 0.00108621 0.00222367 0.00346497 0.004857 0.00113375 0.00227781 0.0034477 0.00466563 0.00127943 0.00251627 0.00367412 0.00473354 
</DataArray>
<DataArray Name="Warping_Z" format="ascii" type="Float64">
0 0 0 0 0 0 0 0 0 0 0 0 0 0 0 0 0 0 0 0 0 0 0 0 0 0 0 0 0 0 0 0 0 0 0 0 0 0 0 0 0 0 0 0 0 0 0 0 0 0 0 0 0 0 0 0 0 0 0 0 0 0 0 0 0 0 0 0 0 0 0 0 0 0 0 0 0 0 0 0 0 0 0 0 0 0 0 0 0 0 0 0 0 0 0 0 0 0 0 0 0 0 0 0 0 0 0 0 0 0 0 0 0 0 0 0 0 0 0 0 0 
</DataArray>
</PointData>
<CellData>
<DataArray Name="MaterialId" format="ascii" type="Float64">
3 3 3 3 3 3 3 3 3 3 3 3 3 3 3 3 3 3 3 3 3 3 3 3 3 3 3 3 3 3 3 3 3 3 3 3 3 3 3 3 3 3 3 3 3 3 3 3 3 3 3 3 3 3 3 3 3 3 3 3 3 3 3 3 3 3 3 3 3 3 3 3 3 3 3 3 3 3 3 3 3 3 3 3 3 3 3 3 3 3 3 3 3 3 3 3 3 3 3 3 
</DataArray>
<DataArray Name="FiberAngle" format="ascii" type="Float64">
67.5 67.5 67.5 67.5 67.5 67.5 67.5 67.5 67.5 67.5 67.5 67.5 67.5 67.5 67.5 67.5 67.5 67.5 67.5 67.5 67.5 67.5 67.5 67.5 67.5 67.5 67.5 67.5 67.5 67.5 67.5 67.5 67.5 67.5 67.5 67.5 67.5 67.5 67.5 67.5 67.5 67.5 67.5 67.5 67.5 67.5 67.5 67.5 67.5 67.5 67.5 67.5 67.5 67.5 67.5 67.5 67.5 67.5 67.5 67.5 67.5 67.5 67.5 67.5 67.5 67.5 67.5 67.5 67.5 67.5 67.5 67.5 67.5 67.5 67.5 67.5 67.5 67.5 67.5 67.5 67.5 67.5 67.5 67.5 67.5 67.5 67.5 67.5 67.5 67.5 67.5 67.5 67.5 67.5 67.5 67.5 67.5 67.5 67.5 67.5 
</DataArray>
<DataArray Name="Strain_11" format="ascii" type="Float64">
-0.10309 -0.299557 -0.436199 -0.5236 -0.566438 -0.090143 -0.276079 -0.416872 -0.509993 -0.556233 -0.0867022 -0.261112 -0.39627 -0.488011 -0.534213 -0.0847129 -0.251515 -0.381394 -0.470181 -0.515214 -0.0838098 -0.246873 -0.373786 -0.460704 -0.504869 -0.0838098 -0.246873 -0.373786 -0.460704 -0.504869 -0.0847129 -0.251515 -0.381394 -0.470181 -0.515214 -0.0867022 -0.261112 -0.39627 -0.488011 -0.534213 -0.090143 -0.276079 -0.416872 -0.509993 -0.556233 -0.10309 -0.299557 -0.436199 -0.5236 -0.566438 -0.566438 -0.5236 -0.436199 -0.299557 -0.10309 -0.556233 -0.509993 -0.416872 -0.276079 -0.090143 -0.534213 -0.488011 -0.39627 -0.261112 -0.0867022 -0.515214 -0.470181 -0.381394 -0.251515 -0.0847129 -0.504869 -0.460704 -0.373786 -0.246873 -0.0838098 -0.504869 -0.460704 -0.373786 -0.246873 -0.0838098 -0.515214 -0.470181 -0.381394 -0.251515 -0.0847129 -0.534213 -0.488011 -0.39627 -0.261112 -0.0867022 -0.556233 -0.509993 -0.416872 -0.276079 -0.090143 -0.566438 -0.5236 -0.436199 -0.299557 -0.10309 
</DataArray>
<DataArray Name="Strain_22" format="ascii" type="Float64">
0.0852929 0.113796 0.141952 0.160178 0.169339 0.101575 0.113868 0.130498 0.145003 0.152833 0.12239 0.116387 0.12056 0.1275 0.132164 0.13652 0.119045 0.114076 0.114807 0.116438 0.143176 0.120659 0.110998 0.108413 0.108346 0.143176 0.120659 0.110998 0.108413 0.108346 0.13652 0.119045 0.114076 0.114807 0.116438 0.12239 0.116387 0.12056 0.1275 0.132164 0.101575 0.113868 0.130498 0.145003 0.152833 0.0852929 0.113796 0.141952 0.160178 0.169339 0.169339 0.160178 0.141952 0.113796 0.0852929 0.152833 0.145003 0.130498 0.113868 0.101575 0.132164 0.1275 0.12056 0.116387 0.12239 0.116438 0.114807 0.114076 0.119045 0.13652 0.108346 0.108413 0.110998 0.120659 0.143176 0.108346 0.108413 0.110998 0.120659 0.143176 0.116438 0.114807 0.114076 0.119045 0.13652 0.132164 0.1275 0.12056 0.116387 0.12239 0.152833 0.145003 0.130498 0.113868 0.101575 0.169339 0.160178 0.141952 0.113796 0.0852929 
</DataArray>
<DataArray Name="Strain_12" format="ascii" type="Float64">
-0.0106753 -0.0442081 -0.0421597 -0.0283186 -0.00984637 -0.0215984 -0.0608545 -0.0657022 -0.0468749 -0.0167474 -0.0132579 -0.0453613 -0.0514932 -0.0384702 -0.0140294 -0.00528845 -0.0251956 -0.0301126 -0.0230774 -0.00853856 -0.00122097 -0.00781621 -0.00967926 -0.00752655 -0.00280237 0.00122097 0.00781621 0.00967926 0.00752655 0.00280237 0.00528845 0.0251956 0.0301126 0.0230774 0.00853856 0.0132579 0.0453613 0.0514932 0.0384702 0.0140294 0.0215984 0.0608545 0.0657022 0.0468749 0.0167474 0.0106753 0.0442081 0.0421597 0.0283186 0.00984637 0.00984637 0.0283186 0.0421597 0.0442081 0.0106753 0.0167474 0.0468749 0.0657022 0.0608545 0.0215984 0.0140294 0.0384702 0.0514932 0.0453613 0.0132579 0.00853856 0.0230774 0.0301126 0.0251956 0.00528845 0.00280237 0.00752655 0.00967926 0.00781621 0.00122097 -0.00280237 -0.00752655 -0.00967926 -0.00781621 -0.00122097 -0.00853856 -0.0230774 -0.0301126 -0.0251956 -0.00528845 -0.0140294 -0.0384702 -0.0514932 -0.0453613 -0.0132579 -0.0167474 -0.0468749 -0.0657022 -0.0608545 -0.0215984 -0.00984637 -0.0283186 -0.0421597 -0.0442081 -0.0106753 
</DataArray>
<DataArray Name="Strain_13" format="ascii" type="Float64">
-0.109332 0.63907 1.1741 1.52275 1.69523 -0.174529 0.506861 1.01969 1.35931 1.52835 -0.196982 0.43761 0.923185 1.24992 1.41382 -0.208533 0.400742 0.867753 1.18359 1.34276 -0.213474 0.384288 0.842341 1.15243 1.30889 -0.213474 0.384288 0.842341 1.15243 1.30889 -0.208533 0.400742 0.867753 1.18359 1.34276 -0.196982 0.43761 0.923185 1.24992 1.41382 -0.174529 0.506861 1.01969 1.35931 1.52835 -0.109332 0.63907 1.1741 1.52275 1.69523 1.69523 1.52275 1.1741 0.63907 -0.109332 1.52835 1.35931 1.01969 0.506861 -0.174529 1.41382 1.24992 0.923185 0.43761 -0.196982 1.34276 1.18359 0.867753 0.400742 -0.208533 1.30889 1.15243 0.842341 0.384288 -0.213474 1.30889 1.15243 0.842341 0.384288 -0.213474 1.34276 1.18359 0.867753 0.400742 -0.208533 1.41382 1.24992 0.923185 0.43761 -0.196982 1.52835 1.35931 1.01969 0.506861 -0.174529 1.69523 1.52275 1.1741 0.63907 -0.109332 
</DataArray>
<DataArray Name="Strain_23" format="ascii" type="Float64">
-0.119557 -0.0534517 -0.0300035 -0.0156522 -0.00489283 -0.220376 -0.120844 -0.0669022 -0.0345106 -0.0107104 -0.207576 -0.125827 -0.0724163 -0.0373439 -0.0115441 -0.141552 -0.0895713 -0.0531298 -0.0277157 -0.0085753 -0.049779 -0.0320545 -0.0192691 -0.0101324 -0.00314357 0.049779 0.0320545 0.0192691 0.0101324 0.00314357 0.141552 0.0895713 0.0531298 0.0277157 0.0085753 0.207576 0.125827 0.0724163 0.0373439 0.0115441 0.220376 0.120844 0.0669022 0.0345106 0.0107104 0.119557 0.0534517 0.0300035 0.0156522 0.00489283 0.00489283 0.0156522 0.0300035 0.0534517 0.119557 0.0107104 0.0345106 0.0669022 0.120844 0.220376 0.0115441 0.0373439 0.0724163 0.125827 0.207576 0.0085753 0.0277157 0.0531298 0.0895713 0.141552 0.00314357 0.0101324 0.0192691 0.0320545 0.049779 -0.00314357 -0.0101324 -0.0192691 -0.0320545 -0.049779 -0.0085753 -0.0277157 -0.0531298 -0.0895713 -0.141552 -0.0115441 -0.0373439 -0.0724163 -0.125827 -0.207576 -0.0107104 -0.0345106 -0.0669022 -0.120844 -0.220376 -0.00489283 -0.0156522 -0.0300035 -0.0534517 -0.119557 
</DataArray>
<DataArray Name="Strain_33" format="ascii" type="Float64">
-0.0530986 -0.012651 0.0177024 0.0379375 0.0480555 -0.053143 -0.0126616 0.0177122 0.0379581 0.0480801 -0.0531553 -0.0126701 0.0177092 0.0379667 0.0480953 -0.0531531 -0.0126688 0.0177066 0.0379649 0.0480961 -0.0531504 -0.0126663 0.0177065 0.0379625 0.0480934 -0.0531504 -0.0126663 0.0177065 0.0379625 0.0480934 -0.0531531 -0.0126688 0.0177066 0.0379649 0.0480961 -0.0531553 -0.0126701 0.0177092 0.0379667 0.0480953 -0.053143 -0.0126616 0.0177122 0.0379581 0.0480801 -0.0530986 -0.012651 0.0177024 0.0379375 0.0480555 0.0480555 0.0379375 0.0177024 -0.012651 -0.0530986 0.0480801 0.0379581 0.0177122 -0.0126616 -0.053143 0.0480953 0.0379667 0.0177092 -0.0126701 -0.0531553 0.0480961 0.0379649 0.0177066 -0.0126688 -0.0531531 0.0480934 0.0379625 0.0177065 -0.0126663 -0.0531504 0.0480934 0.0379625 0.0177065 -0.0126663 -0.0531504 0.0480961 0.0379649 0.0177066 -0.0126688 -0.0531531 0.0480953 0.0379667 0.0177092 -0.0126701 -0.0531553 0.0480801 0.0379581 0.0177122 -0.0126616 -0.053143 0.0480555 0.0379375 0.0177024 -0.012651 -0.0530986 
</DataArray>
<DataArray Name="Stress_11" format="ascii" type="Float64">
-53.5534 -50.4715 -46.3941 -43.0525 -41.2276 -54.6335 -54.8233 -55.076 -55.0744 -55.0075 -54.9225 -55.9579 -57.1911 -58.2182 -58.7712 -54.8731 -55.8687 -57.2162 -58.3953 -59.0702 -54.8114 -55.6723 -56.9165 -58.0534 -58.7171 -54.8114 -55.6723 -56.9165 -58.0534 -58.7171 -54.8731 -55.8687 -57.2162 -58.3953 -59.0702 -54.9225 -55.9579 -57.1911 -58.2182 -58.7712 -54.6335 -54.8233 -55.076 -55.0744 -55.0075 -53.5534 -50.4715 -46.3941 -43.0525 -41.2276 -41.2276 -43.0525 -46.3941 -50.4715 -53.5534 -55.0075 -55.0744 -55.076 -54.8233 -54.6335 -58.7712 -58.2182 -57.1911 -55.9579 -54.9225 -59.0702 -58.3953 -57.2162 -55.8687 -54.8731 -58.7171 -58.0534 -56.9165 -55.6723 -54.8114 -58.7171 -58.0534 -56.9165 -55.6723 -54.8114 -59.0702 -58.3953 -57.2162 -55.8687 -54.8731 -58.7712 -58.2182 -57.1911 -55.9579 -54.9225 -55.0075 -55.0744 -55.076 -54.8233 -54.6335 -41.2276 -43.0525 -46.3941 -50.4715 -53.5534 
</DataArray>
<DataArray Name="Stress_22" format="ascii" type="Float64">
6.13245 3.91963 3.52754 3.32472 3.25986 8.76572 4.86632 2.86526 2.00498 1.66174 11.6282 5.77225 2.36182 0.575196 -0.173465 13.5553 6.47928 2.06894 -0.419273 -1.52027 14.4614 6.86234 1.94637 -0.907535 -2.19867 14.4614 6.86234 1.94637 -0.907535 -2.19867 13.5553 6.47928 2.06894 -0.419273 -1.52027 11.6282 5.77225 2.36182 0.575196 -0.173465 8.76572 4.86632 2.86526 2.00498 1.66174 6.13245 3.91963 3.52754 3.32472 3.25986 3.25986 3.32472 3.52754 3.91963 6.13245 1.66174 2.00498 2.86526 4.86632 8.76572 -0.173465 0.575196 2.36182 5.77225 11.6282 -1.52027 -0.419273 2.06894 6.47928 13.5553 -2.19867 -0.907535 1.94637 6.86234 14.4614 -2.19867 -0.907535 1.94637 6.86234 14.4614 -1.52027 -0.419273 2.06894 6.47928 13.5553 -0.173465 0.575196 2.36182 5.77225 11.6282 1.66174 2.00498 2.86526 4.86632 8.76572 3.25986 3.32472 3.52754 3.91963 6.13245 
</DataArray>
<DataArray Name="Stress_12" format="ascii" type="Float64">
-1.04758 -2.77672 -2.57392 -1.71298 -0.593661 -2.04342 -3.9894 -4.08245 -2.86586 -1.01818 -1.50995 -3.10011 -3.27021 -2.38391 -0.862034 -0.810024 -1.79152 -1.9505 -1.44884 -0.530127 -0.247466 -0.570856 -0.634707 -0.476394 -0.175152 0.247466 0.570856 0.634707 0.476394 0.175152 0.810024 1.79152 1.9505 1.44884 0.530127 1.50995 3.10011 3.27021 2.38391 0.862034 2.04342 3.9894 4.08245 2.86586 1.01818 1.04758 2.77672 2.57392 1.71298 0.593661 0.593661 1.71298 2.57392 2.77672 1.04758 1.01818 2.86586 4.08245 3.9894 2.04342 0.862034 2.38391 3.27021 3.10011 1.50995 0.530127 1.44884 1.9505 1.79152 0.810024 0.175152 0.476394 0.634707 0.570856 0.247466 -0.175152 -0.476394 -0.634707 -0.570856 -0.247466 -0.530127 -1.44884 -1.9505 -1.79152 -0.810024 -0.862034 -2.38391 -3.27021 -3.10011 -1.50995 -1.01818 -2.86586 -4.08245 -3.9894 -2.04342 -0.593661 -1.71298 -2.57392 -2.77672 -1.04758 
</DataArray>
<DataArray Name="Stress_13" format="ascii" type="Float64">
-23.017 32.3153 72.2911 98.5233 111.545 -28.2127 21.5385 58.8817 83.6224 95.948 -30.1286 16.1672 51.3884 74.9958 86.8158 -31.096 13.4751 47.4015 70.2349 81.7078 -31.5053 12.3102 45.6556 68.1129 79.4079 -31.5053 12.3102 45.6556 68.1129 79.4079 -31.096 13.4751 47.4015 70.2349 81.7078 -30.1286 16.1672 51.3884 74.9958 86.8158 -28.2127 21.5385 58.8817 83.6224 95.948 -23.017 32.3153 72.2911 98.5233 111.545 111.545 98.5233 72.2911 32.3153 -23.017 95.948 83.6224 58.8817 21.5385 -28.2127 86.8158 74.9958 51.3884 16.1672 -30.1286 81.7078 70.2349 47.4015 13.4751 -31.096 79.4079 68.1129 45.6556 12.3102 -31.5053 79.4079 68.1129 45.6556 12.3102 -31.5053 81.7078 70.2349 47.4015 13.4751 -31.096 86.8158 74.9958 51.3884 16.1672 -30.1286 95.948 83.6224 58.8817 21.5385 -28.2127 111.545 98.5233 72.2911 32.3153 -23.017 
</DataArray>
<DataArray Name="Stress_23" format="ascii" type="Float64">
-6.19068 -2.90716 -1.69317 -0.905654 -0.286619 -11.4179 -6.4343 -3.67538 -1.9418 -0.610416 -10.7297 -6.63597 -3.90892 -2.0579 -0.643712 -7.3036 -4.69882 -2.84076 -1.50796 -0.471512 -2.56617 -1.6773 -1.02589 -0.548068 -0.17169 2.56617 1.6773 1.02589 0.548068 0.17169 7.3036 4.69882 2.84076 1.50796 0.471512 10.7297 6.63597 3.90892 2.0579 0.643712 11.4179 6.4343 3.67538 1.9418 0.610416 6.19068 2.90716 1.69317 0.905654 0.286619 0.286619 0.905654 1.69317 2.90716 6.19068 0.610416 1.9418 3.67538 6.4343 11.4179 0.643712 2.0579 3.90892 6.63597 10.7297 0.471512 1.50796 2.84076 4.69882 7.3036 0.17169 0.548068 1.02589 1.6773 2.56617 -0.17169 -0.548068 -1.02589 -1.6773 -2.56617 -0.471512 -1.50796 -2.84076 -4.69882 -7.3036 -0.643712 -2.0579 -3.90892 -6.63597 -10.7297 -0.610416 -1.9418 -3.67538 -6.4343 -11.4179 -0.286619 -0.905654 -1.69317 -2.90716 -6.19068 
</DataArray>
<DataArray Name="Stress_33" format="ascii" type="Float64">
-14.6403 -3.98492 4.38341 10.0153 12.8505 -14.7116 -5.46689 1.67411 6.5524 9.01601 -14.2775 -5.96602 0.491889 4.89834 7.13204 -13.9178 -6.06838 0.00330788 4.14366 6.24231 -13.7386 -6.07327 -0.167827 3.85252 5.88926 -13.7386 -6.07327 -0.167827 3.85252 5.88926 -13.9178 -6.06838 0.00330788 4.14366 6.24231 -14.2775 -5.96602 0.491889 4.89834 7.13204 -14.7116 -5.46689 1.67411 6.5524 9.01601 -14.6403 -3.98492 4.38341 10.0153 12.8505 12.8505 10.0153 4.38341 -3.98492 -14.6403 9.01601 6.5524 1.67411 -5.46689 -14.7116 7.13204 4.89834 0.491889 -5.96602 -14.2775 6.24231 4.14366 0.00330788 -6.06838 -13.9178 5.88926 3.85252 -0.167827 -6.07327 -13.7386 5.88926 3.85252 -0.167827 -6.07327 -13.7386 6.24231 4.14366 0.00330788 -6.06838 -13.9178 7.13204 4.89834 0.491889 -5.96602 -14.2775 9.01601 6.5524 1.67411 -5.46689 -14.7116 12.8505 10.0153 4.38341 -3.98492 -14.6403 
</DataArray>
</CellData>
<Points>
<DataArray NumberOfComponents="3" format="ascii" type="Float64">
-0.05 -0.05 0 -0.05 0 0 -0.05 -0.04 0 -0.05 -0.03 0 -0.05 -0.02 0 -0.05 -0.01 0 0 0 0 -0.04 0 0 -0.03 0 0 -0.02 0 0 -0.01 0 0 0 -0.05 0 0 -0.01 0 0 -0.02 0 0 -0.03 0 0 -0.04 0 -0.01 -0.05 0 -0.02 -0.05 0 -0.03 -0.05 0 -0.04 -0.05 0 -0.04 -0.04 0 -0.04 -0.03 0 -0.04 -0.02 0 -0.04 -0.01 0 -0.03 -0.04 0 -0.03 -0.03 0 -0.03 -0.02 0 -0.03 -0.01 0 -0.02 -0.04 0 -0.02 -0.03 0 -0.02 -0.02 0 -0.02 -0.01 0 -0.01 -0.04 0 -0.01 -0.03 0 -0.01 -0.02 0 -0.01 -0.01 0 -0.05 0.05 0 -0.05 0.01 0 -0.05 0.02 0 -0.05 0.03 0 -0.05 0.04 0 0 0.05 0 -0.04 0.05 0 -0.03 0.05 0 -0.02 0.05 0 -0.01 0.05 0 0 0.04 0 0 0.03 0 0 0.02 0 0 0.01 0 -0.04 0.01 0 -0.04 0.02 0 -0.04 0.03 0 -0.04 0.04 0 -0.03 0.01 0 -0.03 0.02 0 -0.03 0.03 0 -0.03 0.04 0 -0.02 0.01 0 -0.02 0.02 0 -0.02 0.03 0 -0.02 0.04 0 -0.01 0.01 0 -0.01 0.02 0 -0.01 0.03 0 -0.01 0.04 0 0.05 0 0 0.01 0 0 0.02 0 0 0.03 0 0 0.04 0 0 0.05 -0.05 0 0.05 -0.01 0 0.05 -0.02 0 0.05 -0.03 0 0.05 -0.04 0 0.04 -0.05 0 0.03 -0.05 0 0.02 -0.05 0 0.01 -0.05 0 0.01 -0.04 0 0.01 -0.03 0 0.01 -0.02 0 0.01 -0.01 0 0.02 -0.04 0 0.02 -0.03 0 0.02 -0.02 0 0.02 -0.01 0 0.03 -0.04 0 0.03 -0.03 0 0.03 -0.02 0 0.03 -0.01 0 0.04 -0.04 0 0.04 -0.03 0 0.04 -0.02 0 0.04 -0.01 0 0.05 0.05 0 0.01 0.05 0 0.02 0.05 0 0.03 0.05 0 0.04 0.05 0 0.05 0.04 0 0.05 0.03 0 0.05 0.02 0 0.05 0.01 0 0.01 0.01 0 0.01 0.02 0 0.01 0.03 0 0.01 0.04 0 0.02 0.01 0 0.02 0.02 0 0.02 0.03 0 0.02 0.04 0 0.03 0.01 0 0.03 0.02 0 0.03 0.03 0 0.03 0.04 0 0.04 0.01 0 0.04 0.02 0 0.04 0.03 0 0.04 0.04 0 
</DataArray>
</Points>
<Cells>
<DataArray Name="connectivity" format="ascii" type="Int64">
0 19 20 2 19 18 24 20 18 17 28 24 17 16 32 28 16 11 15 32 2 20 21 3 20 24 25 21 24 28 29 25 28 32 33 29 32 15 14 33 3 21 22 4 21 25 26 22 25 29 30 26 29 33 34 30 33 14 13 34 4 22 23 5 22 26 27 23 26 30 31 27 30 34 35 31 34 13 12 35 5 23 7 1 23 27 8 7 27 31 9 8 31 35 10 9 35 12 6 10 1 7 50 37 7 8 54 50 8 9 58 54 9 10 62 58 10 6 49 62 37 50 51 38 50 54 55 51 54 58 59 55 58 62 63 59 62 49 48 63 38 51 52 39 51 55 56 52 55 59 60 56 59 63 64 60 63 48 47 64 39 52 53 40 52 56 57 53 56 60 61 57 60 64 65 61 64 47 46 65 40 53 42 36 53 57 43 42 57 61 44 43 61 65 45 44 65 46 41 45 11 79 80 15 79 78 84 80 78 77 88 84 77 76 92 88 76 71 75 92 15 80 81 14 80 84 85 81 84 88 89 85 88 92 93 89 92 75 74 93 14 81 82 13 81 85 86 82 85 89 90 86 89 93 94 90 93 74 73 94 13 82 83 12 82 86 87 83 86 90 91 87 90 94 95 91 94 73 72 95 12 83 67 6 83 87 68 67 87 91 69 68 91 95 70 69 95 72 66 70 6 67 105 49 67 68 109 105 68 69 113 109 69 70 117 113 70 66 104 117 49 105 106 48 105 109 110 106 109 113 114 110 113 117 118 114 117 104 103 118 48 106 107 47 106 110 111 107 110 114 115 111 114 118 119 115 118 103 102 119 47 107 108 46 107 111 112 108 111 115 116 112 115 119 120 116 119 102 101 120 46 108 97 41 108 112 98 97 112 116 99 98 116 120 100 99 120 101 96 100 
</DataArray>
<DataArray Name="offsets" format="ascii" type="Int64">
4 8 12 16 20 24 28 32 36 40 44 48 52 56 60 64 68 72 76 80 84 88 92 96 100 104 108 112 116 120 124 128 132 136 140 144 148 152 156 160 164 168 172 176 180 184 188 192 196 200 204 208 212 216 220 224 228 232 236 240 244 248 252 256 260 264 268 272 276 280 284 288 292 296 300 304 308 312 316 320 324 328 332 336 340 344 348 352 356 360 364 368 372 376 380 384 388 392 396 400 
</DataArray>
<DataArray Name="types" format="ascii" type="Int8">
9 9 9 9 9 9 9 9 9 9 9 9 9 9 9 9 9 9 9 9 9 9 9 9 9 9 9 9 9 9 9 9 9 9 9 9 9 9 9 9 9 9 9 9 9 9 9 9 9 9 9 9 9 9 9 9 9 9 9 9 9 9 9 9 9 9 9 9 9 9 9 9 9 9 9 9 9 9 9 9 9 9 9 9 9 9 9 9 9 9 9 9 9 9 9 9 9 9 9 9 
</DataArray>
</Cells>
</Piece>
</UnstructuredGrid>
</VTKFile>
