<?xml version="1.0"?>
<VTKFile byte_order="LittleEndian" type="UnstructuredGrid" version="0.1">
<UnstructuredGrid>
<Piece NumberOfCells="100" NumberOfPoints="121">
<PointData>
<DataArray Name="Warping_X" format="ascii" type="Float64">
0.598625 1.28441e-16 0.434129 0.292981 0.178086 0.0836153 9.6935e-17 1.34628e-16 1.29694e-16 1.13741e-16 1.06738e-16 -9.55881e-18 1.16675e-16 9.82887e-17 2.41781e-17 -9.03186e-18 0.161568 0.314466 0.44914 0.553048 0.410917 0.278458 0.169307 0.079462 0.343307 0.236362 0.144558 0.0679948 0.244257 0.170826 0.105302 0.0496882 0.126513 0.0893353 0.0554112 0.0262174 -0.598625 -0.0836153 -0.178086 -0.292981 -0.434129 2.68467e-17 -0.553048 -0.44914 -0.314466 -0.161568 -9.05361e-17 -5.29338e-17 2.94105e-17 5.735e-17 -0.079462 -0.169307 -0.278458 -0.410917 -0.0679948 -0.144558 -0.236362 -0.343307 -0.0496882 -0.105302 -0.170826 -0.244257 -0.0262174 -0.0554112 -0.0893353 -0.126513 1.67649e-16 9.39786e-17 9.79511e-17 1.01179e-16 1.61552e-16 -0.598625 -0.0836153 -0.178086 -0.292981 -0.434129 -0.553048 -0.44914 -0.314466 -0.161568 -0.126513 -0.0893353 -0.0554112 -0.0262174 -0.244257 -0.170826 -0.105302 -0.0496882 -0.343307 -0.236362 -0.144558 -0.0679948 -0.410917 -0.278458 -0.169307 -0.079462 0.598625 0.161568 0.314466 0.44914 0.553048 0.434129 0.292981 0.178086 0.0836153 0.0262174 0.0554112 0.0893353 0.126513 0.0496882 0.105302 0.170826 0.244257 0.0679948 0.144558 0.236362 0.343307 0.079462 0.169307 0.278458 0.410917 
</DataArray>
<DataArray Name="Warping_Y" format="ascii" type="Float64">
-0.304045 -0.217064 -0.285691 -0.263467 -0.240125 -0.223184 0.22109 -0.0814266 0.0424237 0.139288 0.200313 0.107037 0.218102 0.208006 0.187845 0.15445 0.0908842 0.0427382 -0.0370391 -0.149213 -0.125275 -0.107517 -0.0937534 -0.0846337 -0.00209502 0.0198675 0.0330078 0.0401448 0.0846998 0.112703 0.128857 0.136887 0.136964 0.168974 0.188038 0.197512 -0.304045 -0.223184 -0.240125 -0.263467 -0.285691 0.107037 -0.149213 -0.0370391 0.0427382 0.0908842 0.15445 0.187845 0.208006 0.218102 -0.0846337 -0.0937534 -0.107517 -0.125275 0.0401448 0.0330078 0.0198675 -0.00209502 0.136887 0.128857 0.112703 0.0846998 0.197512 0.188038 0.168974 0.136964 -0.217064 0.200313 0.139288 0.0424237 -0.0814266 -0.304045 -0.223184 -0.240125 -0.263467 -0.285691 -0.149213 -0.0370391 0.0427382 0.0908842 0.136964 0.168974 0.188038 0.197512 0.0846998 0.112703 0.128857 0.136887 -0.00209502 0.0198675 0.0330078 0.0401448 -0.125275 -0.107517 -0.0937534 -0.0846337 -0.304045 0.0908842 0.0427382 -0.0370391 -0.149213 -0.285691 -0.263467 -0.240125 -0.223184 0.197512 0.188038 0.168974 0.136964 0.136887 0.128857 0.112703 0.0846998 0.0401448 0.0330078 0.0198675 -0.00209502 -0.0846337 -0.0937534 -0.107517 -0.125275 
</DataArray>
<DataArray Name="Warping_Z" format="ascii" type="Float64">
0 0 0 0 0 0 0 0 0 0 0 0 0 0 0 0 0 0 0 0 0 0 0 0 0 0 0 0 0 0 0 0 0 0 0 0 0 0 0 0 0 0 0 0 0 0 0 0 0 0 0 0 0 0 0 0 0 0 0 0 0 0 0 0 0 0 0 0 0 0 0 0 0 0 0 0 0 0 0 0 0 0 0 0 0 0 0 0 0 0 0 0 0 0 0 0 0 0 0 0 0 0 0 0 0 0 0 0 0 0 0 0 0 0 0 0 0 0 0 0 0 
</DataArray>
</PointData>
<CellData>
<DataArray Name="MaterialId" format="ascii" type="Float64">
3 3 3 3 3 3 3 3 3 3 3 3 3 3 3 3 3 3 3 3 3 3 3 3 3 3 3 3 3 3 3 3 3 3 3 3 3 3 3 3 3 3 3 3 3 3 3 3 3 3 3 3 3 3 3 3 3 3 3 3 3 3 3 3 3 3 3 3 3 3 3 3 3 3 3 3 3 3 3 3 3 3 3 3 3 3 3 3 3 3 3 3 3 3 3 3 3 3 3 3 
</DataArray>
<DataArray Name="FiberAngle" format="ascii" type="Float64">
67.5 67.5 67.5 67.5 67.5 67.5 67.5 67.5 67.5 67.5 67.5 67.5 67.5 67.5 67.5 67.5 67.5 67.5 67.5 67.5 67.5 67.5 67.5 67.5 67.5 67.5 67.5 67.5 67.5 67.5 67.5 67.5 67.5 67.5 67.5 67.5 67.5 67.5 67.5 67.5 67.5 67.5 67.5 67.5 67.5 67.5 67.5 67.5 67.5 67.5 67.5 67.5 67.5 67.5 67.5 67.5 67.5 67.5 67.5 67.5 67.5 67.5 67.5 67.5 67.5 67.5 67.5 67.5 67.5 67.5 67.5 67.5 67.5 67.5 67.5 67.5 67.5 67.5 67.5 67.5 67.5 67.5 67.5 67.5 67.5 67.5 67.5 67.5 67.5 67.5 67.5 67.5 67.5 67.5 67.5 67.5 67.5 67.5 67.5 67.5 
</DataArray>
<DataArray Name="Strain_11" format="ascii" type="Float64">
-3.43944 -8.57591 -11.6862 -13.5321 -14.404 -1.88674 -5.48532 -8.22923 -9.96178 -10.7924 -1.16511 -3.34226 -5.23953 -6.56912 -7.23732 -0.646617 -1.81081 -2.87811 -3.6681 -4.08143 -0.207666 -0.57336 -0.915333 -1.17354 -1.31087 0.207666 0.57336 0.915333 1.17354 1.31087 0.646617 1.81081 2.87811 3.6681 4.08143 1.16511 3.34226 5.23953 6.56912 7.23732 1.88674 5.48532 8.22923 9.96178 10.7924 3.43944 8.57591 11.6862 13.5321 14.404 -14.404 -13.5321 -11.6862 -8.57591 -3.43944 -10.7924 -9.96178 -8.22923 -5.48532 -1.88674 -7.23732 -6.56912 -5.23953 -3.34226 -1.16511 -4.08143 -3.6681 -2.87811 -1.81081 -0.646617 -1.31087 -1.17354 -0.915333 -0.57336 -0.207666 1.31087 1.17354 0.915333 0.57336 0.207666 4.08143 3.6681 2.87811 1.81081 0.646617 7.23732 6.56912 5.23953 3.34226 1.16511 10.7924 9.96178 8.22923 5.48532 1.88674 14.404 13.5321 11.6862 8.57591 3.43944 
</DataArray>
<DataArray Name="Strain_22" format="ascii" type="Float64">
2.1146 2.94408 3.84528 4.40206 4.67466 1.99908 1.98604 2.49831 3.00071 3.27025 1.85528 1.34518 1.46467 1.76084 1.96127 1.30307 0.812835 0.75838 0.875241 0.978501 0.46633 0.274304 0.234014 0.260086 0.289403 -0.46633 -0.274304 -0.234014 -0.260086 -0.289403 -1.30307 -0.812835 -0.75838 -0.875241 -0.978501 -1.85528 -1.34518 -1.46467 -1.76084 -1.96127 -1.99908 -1.98604 -2.49831 -3.00071 -3.27025 -2.1146 -2.94408 -3.84528 -4.40206 -4.67466 4.67466 4.40206 3.84528 2.94408 2.1146 3.27025 3.00071 2.49831 1.98604 1.99908 1.96127 1.76084 1.46467 1.34518 1.85528 0.978501 0.875241 0.75838 0.812835 1.30307 0.289403 0.260086 0.234014 0.274304 0.46633 -0.289403 -0.260086 -0.234014 -0.274304 -0.46633 -0.978501 -0.875241 -0.75838 -0.812835 -1.30307 -1.96127 -1.76084 -1.46467 -1.34518 -1.85528 -3.27025 -3.00071 -2.49831 -1.98604 -1.99908 -4.67466 -4.40206 -3.84528 -2.94408 -2.1146 
</DataArray>
<DataArray Name="Strain_12" format="ascii" type="Float64">
0.431043 -0.63049 -0.473479 -0.24267 -0.0708006 2.13797 0.557993 -0.0372571 -0.103675 -0.041049 3.91383 2.65955 1.56785 0.800219 0.245728 5.0303 4.25659 3.02068 1.74994 0.568219 5.5555 5.0586 3.7962 2.2872 0.757487 5.5555 5.0586 3.7962 2.2872 0.757487 5.0303 4.25659 3.02068 1.74994 0.568219 3.91383 2.65955 1.56785 0.800219 0.245728 2.13797 0.557993 -0.0372571 -0.103675 -0.041049 0.431043 -0.63049 -0.473479 -0.24267 -0.0708006 0.0708006 0.24267 0.473479 0.63049 -0.431043 0.041049 0.103675 0.0372571 -0.557993 -2.13797 -0.245728 -0.800219 -1.56785 -2.65955 -3.91383 -0.568219 -1.74994 -3.02068 -4.25659 -5.0303 -0.757487 -2.2872 -3.7962 -5.0586 -5.5555 -0.757487 -2.2872 -3.7962 -5.0586 -5.5555 -0.568219 -1.74994 -3.02068 -4.25659 -5.0303 -0.245728 -0.800219 -1.56785 -2.65955 -3.91383 0.041049 0.103675 0.0372571 -0.557993 -2.13797 0.0708006 0.24267 0.473479 0.63049 -0.431043 
</DataArray>
<DataArray Name="Strain_13" format="ascii" type="Float64">
-38.2398 -17.8222 -5.2105 2.33818 5.90323 -33.5541 -20.2624 -10.3091 -4.00009 -0.95529 -24.7778 -16.8713 -10.3496 -5.89091 -3.66699 -15.1313 -10.8818 -7.26883 -4.69968 -3.38161 -5.08062 -3.74141 -2.58695 -1.75438 -1.32191 5.08062 3.74141 2.58695 1.75438 1.32191 15.1313 10.8818 7.26883 4.69968 3.38161 24.7778 16.8713 10.3496 5.89091 3.66699 33.5541 20.2624 10.3091 4.00009 0.95529 38.2398 17.8222 5.2105 -2.33818 -5.90323 5.90323 2.33818 -5.2105 -17.8222 -38.2398 -0.95529 -4.00009 -10.3091 -20.2624 -33.5541 -3.66699 -5.89091 -10.3496 -16.8713 -24.7778 -3.38161 -4.69968 -7.26883 -10.8818 -15.1313 -1.32191 -1.75438 -2.58695 -3.74141 -5.08062 1.32191 1.75438 2.58695 3.74141 5.08062 3.38161 4.69968 7.26883 10.8818 15.1313 3.66699 5.89091 10.3496 16.8713 24.7778 0.95529 4.00009 10.3091 20.2624 33.5541 -5.90323 -2.33818 5.2105 17.8222 38.2398 
</DataArray>
<DataArray Name="Strain_23" format="ascii" type="Float64">
32.0427 29.4077 22.1148 13.6156 4.58922 4.56267 9.48322 9.27731 6.37973 2.2493 -11.015 -3.72811 -0.131694 0.87449 0.4424 -19.9053 -11.5162 -6.00235 -2.69649 -0.74778 -23.9799 -15.1379 -8.78953 -4.42821 -1.33191 -23.9799 -15.1379 -8.78953 -4.42821 -1.33191 -19.9053 -11.5162 -6.00235 -2.69649 -0.74778 -11.015 -3.72811 -0.131694 0.87449 0.4424 4.56267 9.48322 9.27731 6.37973 2.2493 32.0427 29.4077 22.1148 13.6156 4.58922 -4.58922 -13.6156 -22.1148 -29.4077 -32.0427 -2.2493 -6.37973 -9.27731 -9.48322 -4.56267 -0.4424 -0.87449 0.131694 3.72811 11.015 0.74778 2.69649 6.00235 11.5162 19.9053 1.33191 4.42821 8.78953 15.1379 23.9799 1.33191 4.42821 8.78953 15.1379 23.9799 0.74778 2.69649 6.00235 11.5162 19.9053 -0.4424 -0.87449 0.131694 3.72811 11.015 -2.2493 -6.37973 -9.27731 -9.48322 -4.56267 -4.58922 -13.6156 -22.1148 -29.4077 -32.0427 
</DataArray>
<DataArray Name="Strain_33" format="ascii" type="Float64">
0 0 0 0 0 0 0 0 0 0 0 0 0 0 0 0 0 0 0 0 0 0 0 0 0 0 0 0 0 0 0 0 0 0 0 0 0 0 0 0 0 0 0 0 0 0 0 0 0 0 0 0 0 0 0 0 0 0 0 0 0 0 0 0 0 0 0 0 0 0 0 0 0 0 0 0 0 0 0 0 0 0 0 0 0 0 0 0 0 0 0 0 0 0 0 0 0 0 0 0 
</DataArray>
<DataArray Name="Stress_11" format="ascii" type="Float64">
-5274.54 -5178.53 -5081.77 -5017.06 -4986.21 -4172.08 -4229.04 -4274.54 -4294.99 -4301.78 -2977.59 -3042.22 -3118.66 -3176.97 -3206.37 -1786.99 -1826.29 -1878.99 -1923.85 -1948.68 -595.317 -608.434 -626.381 -642.176 -651.153 595.317 608.434 626.381 642.176 651.153 1786.99 1826.29 1878.99 1923.85 1948.68 2977.59 3042.22 3118.66 3176.97 3206.37 4172.08 4229.04 4274.54 4294.99 4301.78 5274.54 5178.53 5081.77 5017.06 4986.21 -4986.21 -5017.06 -5081.77 -5178.53 -5274.54 -4301.78 -4294.99 -4274.54 -4229.04 -4172.08 -3206.37 -3176.97 -3118.66 -3042.22 -2977.59 -1948.68 -1923.85 -1878.99 -1826.29 -1786.99 -651.153 -642.176 -626.381 -608.434 -595.317 651.153 642.176 626.381 608.434 595.317 1948.68 1923.85 1878.99 1826.29 1786.99 3206.37 3176.97 3118.66 3042.22 2977.59 4301.78 4294.99 4274.54 4229.04 4172.08 4986.21 5017.06 5081.77 5178.53 5274.54 
</DataArray>
<DataArray Name="Stress_22" format="ascii" type="Float64">
218.683 133.752 134.133 137.134 139.81 247.031 111.255 76.2428 77.4956 81.8183 239.309 91.6982 37.3034 27.1093 28.7537 170.463 63.0714 16.6433 2.96919 1.35724 61.3048 22.5931 4.73525 -1.30898 -2.48958 -61.3048 -22.5931 -4.73525 1.30898 2.48958 -170.463 -63.0714 -16.6433 -2.96919 -1.35724 -239.309 -91.6982 -37.3034 -27.1093 -28.7537 -247.031 -111.255 -76.2428 -77.4956 -81.8183 -218.683 -133.752 -134.133 -137.134 -139.81 139.81 137.134 134.133 133.752 218.683 81.8183 77.4956 76.2428 111.255 247.031 28.7537 27.1093 37.3034 91.6982 239.309 1.35724 2.96919 16.6433 63.0714 170.463 -2.48958 -1.30898 4.73525 22.5931 61.3048 2.48958 1.30898 -4.73525 -22.5931 -61.3048 -1.35724 -2.96919 -16.6433 -63.0714 -170.463 -28.7537 -27.1093 -37.3034 -91.6982 -239.309 -81.8183 -77.4956 -76.2428 -111.255 -247.031 -139.81 -137.134 -134.133 -133.752 -218.683 
</DataArray>
<DataArray Name="Stress_12" format="ascii" type="Float64">
138.519 67.0657 50.4724 33.9335 12.081 141.279 66.1906 30.6194 16.4871 5.54966 190.155 142.497 91.3092 49.933 15.9479 224.075 208.445 155.595 92.9 30.6172 240.412 242.588 191.137 118.226 39.6309 240.412 242.588 191.137 118.226 39.6309 224.075 208.445 155.595 92.9 30.6172 190.155 142.497 91.3092 49.933 15.9479 141.279 66.1906 30.6194 16.4871 5.54966 138.519 67.0657 50.4724 33.9335 12.081 -12.081 -33.9335 -50.4724 -67.0657 -138.519 -5.54966 -16.4871 -30.6194 -66.1906 -141.279 -15.9479 -49.933 -91.3092 -142.497 -190.155 -30.6172 -92.9 -155.595 -208.445 -224.075 -39.6309 -118.226 -191.137 -242.588 -240.412 -39.6309 -118.226 -191.137 -242.588 -240.412 -30.6172 -92.9 -155.595 -208.445 -224.075 -15.9479 -49.933 -91.3092 -142.497 -190.155 -5.54966 -16.4871 -30.6194 -66.1906 -141.279 -12.081 -33.9335 -50.4724 -67.0657 -138.519 
</DataArray>
<DataArray Name="Stress_13" format="ascii" type="Float64">
-4181.88 -2675.59 -1739.23 -1177.17 -911.745 -3552.22 -2597.32 -1888.08 -1438.08 -1220.36 -2599.95 -2035.03 -1580.34 -1273.15 -1120.52 -1581.24 -1276.69 -1026.31 -851.71 -763.024 -529.988 -433.838 -353.899 -297.527 -268.601 529.988 433.838 353.899 297.527 268.601 1581.24 1276.69 1026.31 851.71 763.024 2599.95 2035.03 1580.34 1273.15 1120.52 3552.22 2597.32 1888.08 1438.08 1220.36 4181.88 2675.59 1739.23 1177.17 911.745 -911.745 -1177.17 -1739.23 -2675.59 -4181.88 -1220.36 -1438.08 -1888.08 -2597.32 -3552.22 -1120.52 -1273.15 -1580.34 -2035.03 -2599.95 -763.024 -851.71 -1026.31 -1276.69 -1581.24 -268.601 -297.527 -353.899 -433.838 -529.988 268.601 297.527 353.899 433.838 529.988 763.024 851.71 1026.31 1276.69 1581.24 1120.52 1273.15 1580.34 2035.03 2599.95 1220.36 1438.08 1888.08 2597.32 3552.22 911.745 1177.17 1739.23 2675.59 4181.88 
</DataArray>
<DataArray Name="Stress_23" format="ascii" type="Float64">
1650.58 1511.22 1136.45 699.86 235.931 242.374 490.021 477.32 327.963 115.614 -553.043 -182.462 -1.2344 47.8344 23.6366 -1006.63 -577.628 -298.228 -132.586 -36.4752 -1214.47 -761.179 -438.927 -219.809 -65.8682 -1214.47 -761.179 -438.927 -219.809 -65.8682 -1006.63 -577.628 -298.228 -132.586 -36.4752 -553.043 -182.462 -1.2344 47.8344 23.6366 242.374 490.021 477.32 327.963 115.614 1650.58 1511.22 1136.45 699.86 235.931 -235.931 -699.86 -1136.45 -1511.22 -1650.58 -115.614 -327.963 -477.32 -490.021 -242.374 -23.6366 -47.8344 1.2344 182.462 553.043 36.4752 132.586 298.228 577.628 1006.63 65.8682 219.809 438.927 761.179 1214.47 65.8682 219.809 438.927 761.179 1214.47 36.4752 132.586 298.228 577.628 1006.63 -23.6366 -47.8344 1.2344 182.462 553.043 -115.614 -327.963 -477.32 -490.021 -242.374 -235.931 -699.86 -1136.45 -1511.22 -1650.58 
</DataArray>
<DataArray Name="Stress_33" format="ascii" type="Float64">
-1086.84 -936.9 -826.239 -758.279 -725.851 -867.732 -807.658 -747.961 -703.438 -680.61 -611.216 -595.637 -571.179 -549.291 -536.892 -362.678 -361.422 -353.245 -344.219 -338.65 -120.094 -120.924 -119.177 -116.821 -115.276 120.094 120.924 119.177 116.821 115.276 362.678 361.422 353.245 344.219 338.65 611.216 595.637 571.179 549.291 536.892 867.732 807.658 747.961 703.438 680.61 1086.84 936.9 826.239 758.279 725.851 -725.851 -758.279 -826.239 -936.9 -1086.84 -680.61 -703.438 -747.961 -807.658 -867.732 -536.892 -549.291 -571.179 -595.637 -611.216 -338.65 -344.219 -353.245 -361.422 -362.678 -115.276 -116.821 -119.177 -120.924 -120.094 115.276 116.821 119.177 120.924 120.094 338.65 344.219 353.245 361.422 362.678 536.892 549.291 571.179 595.637 611.216 680.61 703.438 747.961 807.658 867.732 725.851 758.279 826.239 936.9 1086.84 
</DataArray>
</CellData>
<Points>
<DataArray NumberOfComponents="3" format="ascii" type="Float64">
-0.05 -0.05 0 -0.05 0 0 -0.05 -0.04 0 -0.05 -0.03 0 -0.05 -0.02 0 -0.05 -0.01 0 0 0 0 -0.04 0 0 -0.03 0 0 -0.02 0 0 -0.01 0 0 0 -0.05 0 0 -0.01 0 0 -0.02 0 0 -0.03 0 0 -0.04 0 -0.01 -0.05 0 -0.02 -0.05 0 -0.03 -0.05 0 -0.04 -0.05 0 -0.04 -0.04 0 -0.04 -0.03 0 -0.04 -0.02 0 -0.04 -0.01 0 -0.03 -0.04 0 -0.03 -0.03 0 -0.03 -0.02 0 -0.03 -0.01 0 -0.02 -0.04 0 -0.02 -0.03 0 -0.02 -0.02 0 -0.02 -0.01 0 -0.01 -0.04 0 -0.01 -0.03 0 -0.01 -0.02 0 -0.01 -0.01 0 -0.05 0.05 0 -0.05 0.01 0 -0.05 0.02 0 -0.05 0.03 0 -0.05 0.04 0 0 0.05 0 -0.04 0.05 0 -0.03 0.05 0 -0.02 0.05 0 -0.01 0.05 0 0 0.04 0 0 0.03 0 0 0.02 0 0 0.01 0 -0.04 0.01 0 -0.04 0.02 0 -0.04 0.03 0 -0.04 0.04 0 -0.03 0.01 0 -0.03 0.02 0 -0.03 0.03 0 -0.03 0.04 0 -0.02 0.01 0 -0.02 0.02 0 -0.02 0.03 0 -0.02 0.04 0 -0.01 0.01 0 -0.01 0.02 0 -0.01 0.03 0 -0.01 0.04 0 0.05 0 0 0.01 0 0 0.02 0 0 0.03 0 0 0.04 0 0 0.05 -0.05 0 0.05 -0.01 0 0.05 -0.02 0 0.05 -0.03 0 0.05 -0.04 0 0.04 -0.05 0 0.03 -0.05 0 0.02 -0.05 0 0.01 -0.05 0 0.01 -0.04 0 0.01 -0.03 0 0.01 -0.02 0 0.01 -0.01 0 0.02 -0.04 0 0.02 -0.03 0 0.02 -0.02 0 0.02 -0.01 0 0.03 -0.04 0 0.03 -0.03 0 0.03 -0.02 0 0.03 -0.01 0 0.04 -0.04 0 0.04 -0.03 0 0.04 -0.02 0 0.04 -0.01 0 0.05 0.05 0 0.01 0.05 0 0.02 0.05 0 0.03 0.05 0 0.04 0.05 0 0.05 0.04 0 0.05 0.03 0 0.05 0.02 0 0.05 0.01 0 0.01 0.01 0 0.01 0.02 0 0.01 0.03 0 0.01 0.04 0 0.02 0.01 0 0.02 0.02 0 0.02 0.03 0 0.02 0.04 0 0.03 0.01 0 0.03 0.02 0 0.03 0.03 0 0.03 0.04 0 0.04 0.01 0 0.04 0.02 0 0.04 0.03 0 0.04 0.04 0 
</DataArray>
</Points>
<Cells>
<DataArray Name="connectivity" format="ascii" type="Int64">
0 19 20 2 19 18 24 20 18 17 28 24 17 16 32 28 16 11 15 32 2 20 21 3 20 24 25 21 24 28 29 25 28 32 33 29 32 15 14 33 3 21 22 4 21 25 26 22 25 29 30 26 29 33 34 30 33 14 13 34 4 22 23 5 22 26 27 23 26 30 31 27 30 34 35 31 34 13 12 35 5 23 7 1 23 27 8 7 27 31 9 8 31 35 10 9 35 12 6 10 1 7 50 37 7 8 54 50 8 9 58 54 9 10 62 58 10 6 49 62 37 50 51 38 50 54 55 51 54 58 59 55 58 62 63 59 62 49 48 63 38 51 52 39 51 55 56 52 55 59 60 56 59 63 64 60 63 48 47 64 39 52 53 40 52 56 57 53 56 60 61 57 60 64 65 61 64 47 46 65 40 53 42 36 53 57 43 42 57 61 44 43 61 65 45 44 65 46 41 45 11 79 80 15 79 78 84 80 78 77 88 84 77 76 92 88 76 71 75 92 15 80 81 14 80 84 85 81 84 88 89 85 88 92 93 89 92 75 74 93 14 81 82 13 81 85 86 82 85 89 90 86 89 93 94 90 93 74 73 94 13 82 83 12 82 86 87 83 86 90 91 87 90 94 95 91 94 73 72 95 12 83 67 6 83 87 68 67 87 91 69 68 91 95 70 69 95 72 66 70 6 67 105 49 67 68 109 105 68 69 113 109 69 70 117 113 70 66 104 117 49 105 106 48 105 109 110 106 109 113 114 110 113 117 118 114 117 104 103 118 48 106 107 47 106 110 111 107 110 114 115 111 114 118 119 115 118 103 102 119 47 107 108 46 107 111 112 108 111 115 116 112 115 119 120 116 119 102 101 120 46 108 97 41 108 112 98 97 112 116 99 98 116 120 100 99 120 101 96 100 
</DataArray>
<DataArray Name="offsets" format="ascii" type="Int64">
4 8 12 16 20 24 28 32 36 40 44 48 52 56 60 64 68 72 76 80 84 88 92 96 100 104 108 112 116 120 124 128 132 136 140 144 148 152 156 160 164 168 172 176 180 184 188 192 196 200 204 208 212 216 220 224 228 232 236 240 244 248 252 256 260 264 268 272 276 280 284 288 292 296 300 304 308 312 316 320 324 328 332 336 340 344 348 352 356 360 364 368 372 376 380 384 388 392 396 400 
</DataArray>
<DataArray Name="types" format="ascii" type="Int8">
9 9 9 9 9 9 9 9 9 9 9 9 9 9 9 9 9 9 9 9 9 9 9 9 9 9 9 9 9 9 9 9 9 9 9 9 9 9 9 9 9 9 9 9 9 9 9 9 9 9 9 9 9 9 9 9 9 9 9 9 9 9 9 9 9 9 9 9 9 9 9 9 9 9 9 9 9 9 9 9 9 9 9 9 9 9 9 9 9 9 9 9 9 9 9 9 9 9 9 9 
</DataArray>
</Cells>
</Piece>
</UnstructuredGrid>
</VTKFile>
