<?xml version="1.0"?>
<VTKFile byte_order="LittleEndian" type="UnstructuredGrid" version="0.1">
<UnstructuredGrid>
<Piece NumberOfCells="100" NumberOfPoints="121">
<PointData>
<DataArray Name="Warping_X" format="ascii" type="Float64">
0.0016891 -4.60189e-18 0.0022867 0.00225485 0.00175238 0.000949372 -1.56437e-18 -4.40097e-18 -4.17927e-18 -2.82626e-18 -2.11868e-18 0.00296858 0.00106697 0.00201471 0.00272966 0.00309974 0.00289749 0.00269161 0.00237482 0.00199597 0.00246317 0.00236989 0.00182407 0.000983954 0.00269032 0.00249596 0.00189395 0.00101563 0.00290295 0.00261471 0.00195567 0.00104225 0.00304844 0.00269922 0.00199903 0.00106045 -0.0016891 -0.000949372 -0.00175238 -0.00225485 -0.0022867 -0.00296858 -0.00199597 -0.00237482 -0.00269161 -0.00289749 -0.00309974 -0.00272966 -0.00201471 -0.00106697 -0.000983954 -0.00182407 -0.00236989 -0.00246317 -0.00101563 -0.00189395 -0.00249596 -0.00269032 -0.00104225 -0.00195567 -0.00261471 -0.00290295 -0.00106045 -0.00199903 -0.00269922 -0.00304844 7.32638e-19 -1.35486e-18 -8.16961e-19 -1.28928e-18 6.97255e-19 0.0016891 0.000949372 0.00175238 0.00225485 0.0022867 0.00199597 0.00237482 0.00269161 0.00289749 0.00304844 0.00269922 0.00199903 0.00106045 0.00290295 0.00261471 0.00195567 0.00104225 0.00269032 0.00249596 0.00189395 0.00101563 0.00246317 0.00236989 0.00182407 0.000983954 -0.0016891 -0.00289749 -0.00269161 -0.00237482 -0.00199597 -0.0022867 -0.00225485 -0.00175238 -0.000949372 -0.00106045 -0.00199903 -0.00269922 -0.00304844 -0.00104225 -0.00195567 -0.00261471 -0.00290295 -0.00101563 -0.00189395 -0.00249596 -0.00269032 -0.000983954 -0.00182407 -0.00236989 -0.00246317 
</DataArray>
<DataArray Name="Warping_Y" format="ascii" type="Float64">
0.00305129 0.00361864 0.0032753 0.00343146 0.00353488 0.00359745 3.34236e-19 0.00273506 0.00194033 0.00123363 0.000597391 -3.3673e-19 -2.10824e-19 -4.54902e-19 -6.6146e-19 -7.74395e-19 0.00047242 0.000975523 0.00154188 0.00220937 0.00238307 0.00253545 0.00264677 0.00271304 0.0016515 0.00176491 0.00185985 0.00191998 0.00104019 0.00111012 0.00117469 0.00121842 0.000502238 0.000535195 0.000566971 0.000589416 0.00305129 0.00359745 0.00353488 0.00343146 0.0032753 1.68708e-18 0.00220937 0.00154188 0.000975523 0.00047242 1.92387e-18 1.69421e-18 1.29135e-18 7.9816e-19 0.00271304 0.00264677 0.00253545 0.00238307 0.00191998 0.00185985 0.00176491 0.0016515 0.00121842 0.00117469 0.00111012 0.00104019 0.000589416 0.000566971 0.000535195 0.000502238 -0.00361864 -0.000597391 -0.00123363 -0.00194033 -0.00273506 -0.00305129 -0.00359745 -0.00353488 -0.00343146 -0.0032753 -0.00220937 -0.00154188 -0.000975523 -0.00047242 -0.000502238 -0.000535195 -0.000566971 -0.000589416 -0.00104019 -0.00111012 -0.00117469 -0.00121842 -0.0016515 -0.00176491 -0.00185985 -0.00191998 -0.00238307 -0.00253545 -0.00264677 -0.00271304 -0.00305129 -0.00047242 -0.000975523 -0.00154188 -0.00220937 -0.0032753 -0.00343146 -0.00353488 -0.00359745 -0.000589416 -0.000566971 -0.000535195 -0.000502238 -0.00121842 -0.00117469 -0.00111012 -0.00104019 -0.00191998 -0.00185985 -0.00176491 -0.0016515 -0.00271304 -0.00264677 -0.00253545 -0.00238307 
</DataArray>
<DataArray Name="Warping_Z" format="ascii" type="Float64">
0 0 0 0 0 0 0 0 0 0 0 0 0 0 0 0 0 0 0 0 0 0 0 0 0 0 0 0 0 0 0 0 0 0 0 0 0 0 0 0 0 0 0 0 0 0 0 0 0 0 0 0 0 0 0 0 0 0 0 0 0 0 0 0 0 0 0 0 0 0 0 0 0 0 0 0 0 0 0 0 0 0 0 0 0 0 0 0 0 0 0 0 0 0 0 0 0 0 0 0 0 0 0 0 0 0 0 0 0 0 0 0 0 0 0 0 0 0 0 0 0 
</DataArray>
</PointData>
<CellData>
<DataArray Name="MaterialId" format="ascii" type="Float64">
3 3 3 3 3 3 3 3 3 3 3 3 3 3 3 3 3 3 3 3 3 3 3 3 3 3 3 3 3 3 3 3 3 3 3 3 3 3 3 3 3 3 3 3 3 3 3 3 3 3 3 3 3 3 3 3 3 3 3 3 3 3 3 3 3 3 3 3 3 3 3 3 3 3 3 3 3 3 3 3 3 3 3 3 3 3 3 3 3 3 3 3 3 3 3 3 3 3 3 3 
</DataArray>
<DataArray Name="FiberAngle" format="ascii" type="Float64">
67.5 67.5 67.5 67.5 67.5 67.5 67.5 67.5 67.5 67.5 67.5 67.5 67.5 67.5 67.5 67.5 67.5 67.5 67.5 67.5 67.5 67.5 67.5 67.5 67.5 67.5 67.5 67.5 67.5 67.5 67.5 67.5 67.5 67.5 67.5 67.5 67.5 67.5 67.5 67.5 67.5 67.5 67.5 67.5 67.5 67.5 67.5 67.5 67.5 67.5 67.5 67.5 67.5 67.5 67.5 67.5 67.5 67.5 67.5 67.5 67.5 67.5 67.5 67.5 67.5 67.5 67.5 67.5 67.5 67.5 67.5 67.5 67.5 67.5 67.5 67.5 67.5 67.5 67.5 67.5 67.5 67.5 67.5 67.5 67.5 67.5 67.5 67.5 67.5 67.5 67.5 67.5 67.5 67.5 67.5 67.5 67.5 67.5 67.5 67.5 
</DataArray>
<DataArray Name="Strain_11" format="ascii" type="Float64">
0.0241666 0.0303006 0.0264708 0.0175689 0.00611942 0.0145751 0.0176609 0.0165693 0.0115002 0.00408669 0.00933621 0.0097974 0.0090236 0.00639356 0.0023056 0.00531335 0.00507809 0.00441698 0.00307798 0.00110973 0.00172909 0.00158394 0.00133104 0.000909996 0.000325898 -0.00172909 -0.00158394 -0.00133104 -0.000909996 -0.000325898 -0.00531335 -0.00507809 -0.00441698 -0.00307798 -0.00110973 -0.00933621 -0.0097974 -0.0090236 -0.00639356 -0.0023056 -0.0145751 -0.0176609 -0.0165693 -0.0115002 -0.00408669 -0.0241666 -0.0303006 -0.0264708 -0.0175689 -0.00611942 -0.00611942 -0.0175689 -0.0264708 -0.0303006 -0.0241666 -0.00408669 -0.0115002 -0.0165693 -0.0176609 -0.0145751 -0.0023056 -0.00639356 -0.0090236 -0.0097974 -0.00933621 -0.00110973 -0.00307798 -0.00441698 -0.00507809 -0.00531335 -0.000325898 -0.000909996 -0.00133104 -0.00158394 -0.00172909 0.000325898 0.000909996 0.00133104 0.00158394 0.00172909 0.00110973 0.00307798 0.00441698 0.00507809 0.00531335 0.0023056 0.00639356 0.0090236 0.0097974 0.00933621 0.00408669 0.0115002 0.0165693 0.0176609 0.0145751 0.00611942 0.0175689 0.0264708 0.0303006 0.0241666 
</DataArray>
<DataArray Name="Strain_22" format="ascii" type="Float64">
0.0198851 0.0141655 0.0087138 0.00472406 0.00149091 0.0154272 0.0132898 0.00916751 0.00514452 0.00164781 0.0107369 0.010313 0.00797535 0.00481731 0.00158881 0.00644267 0.00632061 0.0051933 0.00330883 0.00112227 0.00216029 0.00211795 0.0017776 0.00115916 0.000398723 -0.00216029 -0.00211795 -0.0017776 -0.00115916 -0.000398723 -0.00644267 -0.00632061 -0.0051933 -0.00330883 -0.00112227 -0.0107369 -0.010313 -0.00797535 -0.00481731 -0.00158881 -0.0154272 -0.0132898 -0.00916751 -0.00514452 -0.00164781 -0.0198851 -0.0141655 -0.0087138 -0.00472406 -0.00149091 -0.00149091 -0.00472406 -0.0087138 -0.0141655 -0.0198851 -0.00164781 -0.00514452 -0.00916751 -0.0132898 -0.0154272 -0.00158881 -0.00481731 -0.00797535 -0.010313 -0.0107369 -0.00112227 -0.00330883 -0.0051933 -0.00632061 -0.00644267 -0.000398723 -0.00115916 -0.0017776 -0.00211795 -0.00216029 0.000398723 0.00115916 0.0017776 0.00211795 0.00216029 0.00112227 0.00330883 0.0051933 0.00632061 0.00644267 0.00158881 0.00481731 0.00797535 0.010313 0.0107369 0.00164781 0.00514452 0.00916751 0.0132898 0.0154272 0.00149091 0.00472406 0.0087138 0.0141655 0.0198851 
</DataArray>
<DataArray Name="Strain_12" format="ascii" type="Float64">
-0.0334674 -0.0308181 -0.0325416 -0.0339379 -0.0346275 -0.0956684 -0.089487 -0.0874352 -0.0875169 -0.0878371 -0.14162 -0.135264 -0.130049 -0.127094 -0.125865 -0.170782 -0.164921 -0.158923 -0.154436 -0.152135 -0.185066 -0.179369 -0.173307 -0.168398 -0.165712 -0.185066 -0.179369 -0.173307 -0.168398 -0.165712 -0.170782 -0.164921 -0.158923 -0.154436 -0.152135 -0.14162 -0.135264 -0.130049 -0.127094 -0.125865 -0.0956684 -0.089487 -0.0874352 -0.0875169 -0.0878371 -0.0334674 -0.0308181 -0.0325416 -0.0339379 -0.0346275 -0.0346275 -0.0339379 -0.0325416 -0.0308181 -0.0334674 -0.0878371 -0.0875169 -0.0874352 -0.089487 -0.0956684 -0.125865 -0.127094 -0.130049 -0.135264 -0.14162 -0.152135 -0.154436 -0.158923 -0.164921 -0.170782 -0.165712 -0.168398 -0.173307 -0.179369 -0.185066 -0.165712 -0.168398 -0.173307 -0.179369 -0.185066 -0.152135 -0.154436 -0.158923 -0.164921 -0.170782 -0.125865 -0.127094 -0.130049 -0.135264 -0.14162 -0.0878371 -0.0875169 -0.0874352 -0.089487 -0.0956684 -0.0346275 -0.0339379 -0.0325416 -0.0308181 -0.0334674 
</DataArray>
<DataArray Name="Strain_13" format="ascii" type="Float64">
-0.0301582 -0.0696269 -0.0696779 -0.0489332 -0.0174327 -0.00437193 -0.0257733 -0.0320361 -0.0245971 -0.00907836 0.000218698 -0.00920724 -0.0134147 -0.0112018 -0.00428532 0.00115029 -0.00301057 -0.00508463 -0.00451129 -0.00177652 0.000513418 -0.00065743 -0.00127636 -0.0011752 -0.000470003 -0.000513418 0.00065743 0.00127636 0.0011752 0.000470003 -0.00115029 0.00301057 0.00508463 0.00451129 0.00177652 -0.000218698 0.00920724 0.0134147 0.0112018 0.00428532 0.00437193 0.0257733 0.0320361 0.0245971 0.00907836 0.0301582 0.0696269 0.0696779 0.0489332 0.0174327 0.0174327 0.0489332 0.0696779 0.0696269 0.0301582 0.00907836 0.0245971 0.0320361 0.0257733 0.00437193 0.00428532 0.0112018 0.0134147 0.00920724 -0.000218698 0.00177652 0.00451129 0.00508463 0.00301057 -0.00115029 0.000470003 0.0011752 0.00127636 0.00065743 -0.000513418 -0.000470003 -0.0011752 -0.00127636 -0.00065743 0.000513418 -0.00177652 -0.00451129 -0.00508463 -0.00301057 0.00115029 -0.00428532 -0.0112018 -0.0134147 -0.00920724 0.000218698 -0.00907836 -0.0245971 -0.0320361 -0.0257733 -0.00437193 -0.0174327 -0.0489332 -0.0696779 -0.0696269 -0.0301582 
</DataArray>
<DataArray Name="Strain_23" format="ascii" type="Float64">
-0.59967 -0.649047 -0.67 -0.68142 -0.68657 0.39525 0.307425 0.254748 0.224728 0.210859 1.1197 1.02183 0.95456 0.913175 0.893521 1.5974 1.49554 1.4222 1.37518 1.35232 1.83508 1.73179 1.65615 1.60689 1.58267 1.83508 1.73179 1.65615 1.60689 1.58267 1.5974 1.49554 1.4222 1.37518 1.35232 1.1197 1.02183 0.95456 0.913175 0.893521 0.39525 0.307425 0.254748 0.224728 0.210859 -0.59967 -0.649047 -0.67 -0.68142 -0.68657 -0.68657 -0.68142 -0.67 -0.649047 -0.59967 0.210859 0.224728 0.254748 0.307425 0.39525 0.893521 0.913175 0.95456 1.02183 1.1197 1.35232 1.37518 1.4222 1.49554 1.5974 1.58267 1.60689 1.65615 1.73179 1.83508 1.58267 1.60689 1.65615 1.73179 1.83508 1.35232 1.37518 1.4222 1.49554 1.5974 0.893521 0.913175 0.95456 1.02183 1.1197 0.210859 0.224728 0.254748 0.307425 0.39525 -0.68657 -0.68142 -0.67 -0.649047 -0.59967 
</DataArray>
<DataArray Name="Strain_33" format="ascii" type="Float64">
-0.102475 -0.0797304 -0.0569599 -0.0341791 -0.0113935 -0.0797276 -0.0620102 -0.0442972 -0.0265801 -0.00886035 -0.056954 -0.0442961 -0.0316403 -0.0189848 -0.00632838 -0.0341741 -0.0265787 -0.0189845 -0.0113907 -0.00379693 -0.0113916 -0.00885972 -0.00632822 -0.0037969 -0.00126563 0.0113916 0.00885972 0.00632822 0.0037969 0.00126563 0.0341741 0.0265787 0.0189845 0.0113907 0.00379693 0.056954 0.0442961 0.0316403 0.0189848 0.00632838 0.0797276 0.0620102 0.0442972 0.0265801 0.00886035 0.102475 0.0797304 0.0569599 0.0341791 0.0113935 0.0113935 0.0341791 0.0569599 0.0797304 0.102475 0.00886035 0.0265801 0.0442972 0.0620102 0.0797276 0.00632838 0.0189848 0.0316403 0.0442961 0.056954 0.00379693 0.0113907 0.0189845 0.0265787 0.0341741 0.00126563 0.0037969 0.00632822 0.00885972 0.0113916 -0.00126563 -0.0037969 -0.00632822 -0.00885972 -0.0113916 -0.00379693 -0.0113907 -0.0189845 -0.0265787 -0.0341741 -0.00632838 -0.0189848 -0.0316403 -0.0442961 -0.056954 -0.00886035 -0.0265801 -0.0442972 -0.0620102 -0.0797276 -0.0113935 -0.0341791 -0.0569599 -0.0797304 -0.102475 
</DataArray>
<DataArray Name="Stress_11" format="ascii" type="Float64">
-0.175034 -0.380977 -0.461501 -0.360007 -0.134148 0.157153 0.365671 0.414251 0.301076 0.107993 0.0207243 0.118038 0.202465 0.186088 0.0738515 0.00301362 0.0165208 0.044274 0.0518975 0.0230298 -0.00188393 -0.00163165 0.00329938 0.00691506 0.00358375 0.00188393 0.00163165 -0.00329938 -0.00691506 -0.00358375 -0.00301362 -0.0165208 -0.044274 -0.0518975 -0.0230298 -0.0207243 -0.118038 -0.202465 -0.186088 -0.0738515 -0.157153 -0.365671 -0.414251 -0.301076 -0.107993 0.175034 0.380977 0.461501 0.360007 0.134148 0.134148 0.360007 0.461501 0.380977 0.175034 -0.107993 -0.301076 -0.414251 -0.365671 -0.157153 -0.0738515 -0.186088 -0.202465 -0.118038 -0.0207243 -0.0230298 -0.0518975 -0.044274 -0.0165208 -0.00301362 -0.00358375 -0.00691506 -0.00329938 0.00163165 0.00188393 0.00358375 0.00691506 0.00329938 -0.00163165 -0.00188393 0.0230298 0.0518975 0.044274 0.0165208 0.00301362 0.0738515 0.186088 0.202465 0.118038 0.0207243 0.107993 0.301076 0.414251 0.365671 0.157153 -0.134148 -0.360007 -0.461501 -0.380977 -0.175034 
</DataArray>
<DataArray Name="Stress_22" format="ascii" type="Float64">
-0.159876 0.138359 0.097674 0.0566513 0.0179252 -0.292397 0.175609 0.228751 0.148192 0.0499831 -0.285154 0.129244 0.24649 0.187917 0.0667882 -0.181765 0.0656699 0.165075 0.140028 0.0522705 -0.0604626 0.0193579 0.0559801 0.0498408 0.0190602 0.0604626 -0.0193579 -0.0559801 -0.0498408 -0.0190602 0.181765 -0.0656699 -0.165075 -0.140028 -0.0522705 0.285154 -0.129244 -0.24649 -0.187917 -0.0667882 0.292397 -0.175609 -0.228751 -0.148192 -0.0499831 0.159876 -0.138359 -0.097674 -0.0566513 -0.0179252 -0.0179252 -0.0566513 -0.097674 -0.138359 0.159876 -0.0499831 -0.148192 -0.228751 -0.175609 0.292397 -0.0667882 -0.187917 -0.24649 -0.129244 0.285154 -0.0522705 -0.140028 -0.165075 -0.0656699 0.181765 -0.0190602 -0.0498408 -0.0559801 -0.0193579 0.0604626 0.0190602 0.0498408 0.0559801 0.0193579 -0.0604626 0.0522705 0.140028 0.165075 0.0656699 -0.181765 0.0667882 0.187917 0.24649 0.129244 -0.285154 0.0499831 0.148192 0.228751 0.175609 -0.292397 0.0179252 0.0566513 0.097674 0.138359 -0.159876 
</DataArray>
<DataArray Name="Stress_12" format="ascii" type="Float64">
-4.07919 -4.09868 -4.27365 -4.39576 -4.45433 -4.20258 -4.15126 -4.2174 -4.32832 -4.39609 -4.33108 -4.30502 -4.23763 -4.21093 -4.20851 -4.34916 -4.36618 -4.27441 -4.17801 -4.12414 -4.34495 -4.37667 -4.28926 -4.17605 -4.10442 -4.34495 -4.37667 -4.28926 -4.17605 -4.10442 -4.34916 -4.36618 -4.27441 -4.17801 -4.12414 -4.33108 -4.30502 -4.23763 -4.21093 -4.20851 -4.20258 -4.15126 -4.2174 -4.32832 -4.39609 -4.07919 -4.09868 -4.27365 -4.39576 -4.45433 -4.45433 -4.39576 -4.27365 -4.09868 -4.07919 -4.39609 -4.32832 -4.2174 -4.15126 -4.20258 -4.20851 -4.21093 -4.23763 -4.30502 -4.33108 -4.12414 -4.17801 -4.27441 -4.36618 -4.34916 -4.10442 -4.17605 -4.28926 -4.37667 -4.34495 -4.10442 -4.17605 -4.28926 -4.37667 -4.34495 -4.12414 -4.17801 -4.27441 -4.36618 -4.34916 -4.20851 -4.21093 -4.23763 -4.30502 -4.33108 -4.39609 -4.32832 -4.2174 -4.15126 -4.20258 -4.45433 -4.39576 -4.27365 -4.09868 -4.07919 
</DataArray>
<DataArray Name="Stress_13" format="ascii" type="Float64">
-2.98402 -5.74004 -5.59052 -3.89088 -1.38165 -0.852225 -2.24414 -2.55402 -1.90741 -0.69731 -0.386063 -0.97692 -1.17182 -0.916603 -0.342518 -0.159764 -0.418203 -0.510923 -0.408384 -0.154722 -0.044649 -0.11612 -0.143212 -0.115409 -0.0439668 0.044649 0.11612 0.143212 0.115409 0.0439668 0.159764 0.418203 0.510923 0.408384 0.154722 0.386063 0.97692 1.17182 0.916603 0.342518 0.852225 2.24414 2.55402 1.90741 0.69731 2.98402 5.74004 5.59052 3.89088 1.38165 1.38165 3.89088 5.59052 5.74004 2.98402 0.69731 1.90741 2.55402 2.24414 0.852225 0.342518 0.916603 1.17182 0.97692 0.386063 0.154722 0.408384 0.510923 0.418203 0.159764 0.0439668 0.115409 0.143212 0.11612 0.044649 -0.0439668 -0.115409 -0.143212 -0.11612 -0.044649 -0.154722 -0.408384 -0.510923 -0.418203 -0.159764 -0.342518 -0.916603 -1.17182 -0.97692 -0.386063 -0.69731 -1.90741 -2.55402 -2.24414 -0.852225 -1.38165 -3.89088 -5.59052 -5.74004 -2.98402 
</DataArray>
<DataArray Name="Stress_23" format="ascii" type="Float64">
-30.98 -33.5118 -34.5962 -35.1889 -35.4564 20.0031 15.5051 12.8014 11.2561 10.5412 57.1243 52.1098 48.6661 46.5467 45.5396 81.6057 76.3843 72.6309 70.2268 69.0585 93.7869 88.4914 84.6201 82.1021 80.8655 93.7869 88.4914 84.6201 82.1021 80.8655 81.6057 76.3843 72.6309 70.2268 69.0585 57.1243 52.1098 48.6661 46.5467 45.5396 20.0031 15.5051 12.8014 11.2561 10.5412 -30.98 -33.5118 -34.5962 -35.1889 -35.4564 -35.4564 -35.1889 -34.5962 -33.5118 -30.98 10.5412 11.2561 12.8014 15.5051 20.0031 45.5396 46.5467 48.6661 52.1098 57.1243 69.0585 70.2268 72.6309 76.3843 81.6057 80.8655 82.1021 84.6201 88.4914 93.7869 80.8655 82.1021 84.6201 88.4914 93.7869 69.0585 70.2268 72.6309 76.3843 81.6057 45.5396 46.5467 48.6661 52.1098 57.1243 10.5412 11.2561 12.8014 15.5051 20.0031 -35.4564 -35.1889 -34.5962 -33.5118 -30.98 
</DataArray>
<DataArray Name="Stress_33" format="ascii" type="Float64">
-13.023 -10.4599 -7.65349 -4.65998 -1.56433 -9.97935 -7.79938 -5.62603 -3.4054 -1.14043 -7.13573 -5.52422 -3.94332 -2.37032 -0.79143 -4.27791 -3.30715 -2.35221 -1.40893 -0.469506 -1.42546 -1.10152 -0.78255 -0.468118 -0.155867 1.42546 1.10152 0.78255 0.468118 0.155867 4.27791 3.30715 2.35221 1.40893 0.469506 7.13573 5.52422 3.94332 2.37032 0.79143 9.97935 7.79938 5.62603 3.4054 1.14043 13.023 10.4599 7.65349 4.65998 1.56433 1.56433 4.65998 7.65349 10.4599 13.023 1.14043 3.4054 5.62603 7.79938 9.97935 0.79143 2.37032 3.94332 5.52422 7.13573 0.469506 1.40893 2.35221 3.30715 4.27791 0.155867 0.468118 0.78255 1.10152 1.42546 -0.155867 -0.468118 -0.78255 -1.10152 -1.42546 -0.469506 -1.40893 -2.35221 -3.30715 -4.27791 -0.79143 -2.37032 -3.94332 -5.52422 -7.13573 -1.14043 -3.4054 -5.62603 -7.79938 -9.97935 -1.56433 -4.65998 -7.65349 -10.4599 -13.023 
</DataArray>
</CellData>
<Points>
<DataArray NumberOfComponents="3" format="ascii" type="Float64">
-0.05 -0.05 0 -0.05 0 0 -0.05 -0.04 0 -0.05 -0.03 0 -0.05 -0.02 0 -0.05 -0.01 0 0 0 0 -0.04 0 0 -0.03 0 0 -0.02 0 0 -0.01 0 0 0 -0.05 0 0 -0.01 0 0 -0.02 0 0 -0.03 0 0 -0.04 0 -0.01 -0.05 0 -0.02 -0.05 0 -0.03 -0.05 0 -0.04 -0.05 0 -0.04 -0.04 0 -0.04 -0.03 0 -0.04 -0.02 0 -0.04 -0.01 0 -0.03 -0.04 0 -0.03 -0.03 0 -0.03 -0.02 0 -0.03 -0.01 0 -0.02 -0.04 0 -0.02 -0.03 0 -0.02 -0.02 0 -0.02 -0.01 0 -0.01 -0.04 0 -0.01 -0.03 0 -0.01 -0.02 0 -0.01 -0.01 0 -0.05 0.05 0 -0.05 0.01 0 -0.05 0.02 0 -0.05 0.03 0 -0.05 0.04 0 0 0.05 0 -0.04 0.05 0 -0.03 0.05 0 -0.02 0.05 0 -0.01 0.05 0 0 0.04 0 0 0.03 0 0 0.02 0 0 0.01 0 -0.04 0.01 0 -0.04 0.02 0 -0.04 0.03 0 -0.04 0.04 0 -0.03 0.01 0 -0.03 0.02 0 -0.03 0.03 0 -0.03 0.04 0 -0.02 0.01 0 -0.02 0.02 0 -0.02 0.03 0 -0.02 0.04 0 -0.01 0.01 0 -0.01 0.02 0 -0.01 0.03 0 -0.01 0.04 0 0.05 0 0 0.01 0 0 0.02 0 0 0.03 0 0 0.04 0 0 0.05 -0.05 0 0.05 -0.01 0 0.05 -0.02 0 0.05 -0.03 0 0.05 -0.04 0 0.04 -0.05 0 0.03 -0.05 0 0.02 -0.05 0 0.01 -0.05 0 0.01 -0.04 0 0.01 -0.03 0 0.01 -0.02 0 0.01 -0.01 0 0.02 -0.04 0 0.02 -0.03 0 0.02 -0.02 0 0.02 -0.01 0 0.03 -0.04 0 0.03 -0.03 0 0.03 -0.02 0 0.03 -0.01 0 0.04 -0.04 0 0.04 -0.03 0 0.04 -0.02 0 0.04 -0.01 0 0.05 0.05 0 0.01 0.05 0 0.02 0.05 0 0.03 0.05 0 0.04 0.05 0 0.05 0.04 0 0.05 0.03 0 0.05 0.02 0 0.05 0.01 0 0.01 0.01 0 0.01 0.02 0 0.01 0.03 0 0.01 0.04 0 0.02 0.01 0 0.02 0.02 0 0.02 0.03 0 0.02 0.04 0 0.03 0.01 0 0.03 0.02 0 0.03 0.03 0 0.03 0.04 0 0.04 0.01 0 0.04 0.02 0 0.04 0.03 0 0.04 0.04 0 
</DataArray>
</Points>
<Cells>
<DataArray Name="connectivity" format="ascii" type="Int64">
0 19 20 2 19 18 24 20 18 17 28 24 17 16 32 28 16 11 15 32 2 20 21 3 20 24 25 21 24 28 29 25 28 32 33 29 32 15 14 33 3 21 22 4 21 25 26 22 25 29 30 26 29 33 34 30 33 14 13 34 4 22 23 5 22 26 27 23 26 30 31 27 30 34 35 31 34 13 12 35 5 23 7 1 23 27 8 7 27 31 9 8 31 35 10 9 35 12 6 10 1 7 50 37 7 8 54 50 8 9 58 54 9 10 62 58 10 6 49 62 37 50 51 38 50 54 55 51 54 58 59 55 58 62 63 59 62 49 48 63 38 51 52 39 51 55 56 52 55 59 60 56 59 63 64 60 63 48 47 64 39 52 53 40 52 56 57 53 56 60 61 57 60 64 65 61 64 47 46 65 40 53 42 36 53 57 43 42 57 61 44 43 61 65 45 44 65 46 41 45 11 79 80 15 79 78 84 80 78 77 88 84 77 76 92 88 76 71 75 92 15 80 81 14 80 84 85 81 84 88 89 85 88 92 93 89 92 75 74 93 14 81 82 13 81 85 86 82 85 89 90 86 89 93 94 90 93 74 73 94 13 82 83 12 82 86 87 83 86 90 91 87 90 94 95 91 94 73 72 95 12 83 67 6 83 87 68 67 87 91 69 68 91 95 70 69 95 72 66 70 6 67 105 49 67 68 109 105 68 69 113 109 69 70 117 113 70 66 104 117 49 105 106 48 105 109 110 106 109 113 114 110 113 117 118 114 117 104 103 118 48 106 107 47 106 110 111 107 110 114 115 111 114 118 119 115 118 103 102 119 47 107 108 46 107 111 112 108 111 115 116 112 115 119 120 116 119 102 101 120 46 108 97 41 108 112 98 97 112 116 99 98 116 120 100 99 120 101 96 100 
</DataArray>
<DataArray Name="offsets" format="ascii" type="Int64">
4 8 12 16 20 24 28 32 36 40 44 48 52 56 60 64 68 72 76 80 84 88 92 96 100 104 108 112 116 120 124 128 132 136 140 144 148 152 156 160 164 168 172 176 180 184 188 192 196 200 204 208 212 216 220 224 228 232 236 240 244 248 252 256 260 264 268 272 276 280 284 288 292 296 300 304 308 312 316 320 324 328 332 336 340 344 348 352 356 360 364 368 372 376 380 384 388 392 396 400 
</DataArray>
<DataArray Name="types" format="ascii" type="Int8">
9 9 9 9 9 9 9 9 9 9 9 9 9 9 9 9 9 9 9 9 9 9 9 9 9 9 9 9 9 9 9 9 9 9 9 9 9 9 9 9 9 9 9 9 9 9 9 9 9 9 9 9 9 9 9 9 9 9 9 9 9 9 9 9 9 9 9 9 9 9 9 9 9 9 9 9 9 9 9 9 9 9 9 9 9 9 9 9 9 9 9 9 9 9 9 9 9 9 9 9 
</DataArray>
</Cells>
</Piece>
</UnstructuredGrid>
</VTKFile>
