<?xml version="1.0"?>
<VTKFile byte_order="LittleEndian" type="UnstructuredGrid" version="0.1">
<UnstructuredGrid>
<Piece NumberOfCells="100" NumberOfPoints="121">
<PointData>
<DataArray Name="Warping_X" format="ascii" type="Float64">
-0.323231 -2.19208e-16 -0.258585 -0.193938 -0.129293 -0.0646464 -2.48135e-16 -2.25729e-16 -2.53797e-16 -2.53781e-16 -2.45779e-16 4.80819e-17 -2.53799e-16 -1.93315e-16 -1.0397e-16 -3.43356e-17 -0.0646409 -0.129282 -0.193924 -0.258567 -0.206866 -0.155152 -0.103435 -0.0517175 -0.155145 -0.116363 -0.0775764 -0.0387883 -0.103429 -0.0775747 -0.0517175 -0.0258589 -0.0517139 -0.038787 -0.0258587 -0.0129295 0.323231 0.0646464 0.129293 0.193938 0.258585 1.60346e-16 0.258567 0.193924 0.129282 0.0646409 1.81522e-16 1.04767e-16 -3.30226e-17 -1.59764e-16 0.0517175 0.103435 0.155152 0.206866 0.0387883 0.0775764 0.116363 0.155145 0.0258589 0.0517175 0.0775747 0.103429 0.0129295 0.0258587 0.038787 0.0517139 -2.80456e-16 -2.51543e-16 -2.5939e-16 -2.65027e-16 -2.7409e-16 0.323231 0.0646464 0.129293 0.193938 0.258585 0.258567 0.193924 0.129282 0.0646409 0.0517139 0.038787 0.0258587 0.0129295 0.103429 0.0775747 0.0517175 0.0258589 0.155145 0.116363 0.0775764 0.0387883 0.206866 0.155152 0.103435 0.0517175 -0.323231 -0.0646409 -0.129282 -0.193924 -0.258567 -0.258585 -0.193938 -0.129293 -0.0646464 -0.0129295 -0.0258587 -0.038787 -0.0517139 -0.0258589 -0.0517175 -0.0775747 -0.103429 -0.0387883 -0.0775764 -0.116363 -0.155145 -0.0517175 -0.103435 -0.155152 -0.206866 
</DataArray>
<DataArray Name="Warping_Y" format="ascii" type="Float64">
-0.0745888 0.211327 0.0283374 0.108396 0.16558 0.19989 0.0497219 0.153148 0.107898 0.0755777 0.0561858 -0.236183 0.0382859 0.00397797 -0.0532024 -0.133256 -0.229719 -0.210327 -0.178007 -0.132761 -0.029836 0.0502185 0.107401 0.141711 -0.0750808 0.00497166 0.0621528 0.0964617 -0.1074 -0.027347 0.0298333 0.0641416 -0.126792 -0.0467385 0.0104418 0.0447498 -0.0745888 0.19989 0.16558 0.108396 0.0283374 -0.236183 -0.132761 -0.178007 -0.210327 -0.229719 -0.133256 -0.0532024 0.00397797 0.0382859 0.141711 0.107401 0.0502185 -0.029836 0.0964617 0.0621528 0.00497166 -0.0750808 0.0641416 0.0298333 -0.027347 -0.1074 0.0447498 0.0104418 -0.0467385 -0.126792 0.211327 0.0561858 0.0755777 0.107898 0.153148 -0.0745888 0.19989 0.16558 0.108396 0.0283374 -0.132761 -0.178007 -0.210327 -0.229719 -0.126792 -0.0467385 0.0104418 0.0447498 -0.1074 -0.027347 0.0298333 0.0641416 -0.0750808 0.00497166 0.0621528 0.0964617 -0.029836 0.0502185 0.107401 0.141711 -0.0745888 -0.229719 -0.210327 -0.178007 -0.132761 0.0283374 0.108396 0.16558 0.19989 0.0447498 0.0104418 -0.0467385 -0.126792 0.0641416 0.0298333 -0.027347 -0.1074 0.0964617 0.0621528 0.00497166 -0.0750808 0.141711 0.107401 0.0502185 -0.029836 
</DataArray>
<DataArray Name="Warping_Z" format="ascii" type="Float64">
0 0 0 0 0 0 0 0 0 0 0 0 0 0 0 0 0 0 0 0 0 0 0 0 0 0 0 0 0 0 0 0 0 0 0 0 0 0 0 0 0 0 0 0 0 0 0 0 0 0 0 0 0 0 0 0 0 0 0 0 0 0 0 0 0 0 0 0 0 0 0 0 0 0 0 0 0 0 0 0 0 0 0 0 0 0 0 0 0 0 0 0 0 0 0 0 0 0 0 0 0 0 0 0 0 0 0 0 0 0 0 0 0 0 0 0 0 0 0 0 0 
</DataArray>
</PointData>
<CellData>
<DataArray Name="MaterialId" format="ascii" type="Float64">
3 3 3 3 3 3 3 3 3 3 3 3 3 3 3 3 3 3 3 3 3 3 3 3 3 3 3 3 3 3 3 3 3 3 3 3 3 3 3 3 3 3 3 3 3 3 3 3 3 3 3 3 3 3 3 3 3 3 3 3 3 3 3 3 3 3 3 3 3 3 3 3 3 3 3 3 3 3 3 3 3 3 3 3 3 3 3 3 3 3 3 3 3 3 3 3 3 3 3 3 
</DataArray>
<DataArray Name="FiberAngle" format="ascii" type="Float64">
67.5 67.5 67.5 67.5 67.5 67.5 67.5 67.5 67.5 67.5 67.5 67.5 67.5 67.5 67.5 67.5 67.5 67.5 67.5 67.5 67.5 67.5 67.5 67.5 67.5 67.5 67.5 67.5 67.5 67.5 67.5 67.5 67.5 67.5 67.5 67.5 67.5 67.5 67.5 67.5 67.5 67.5 67.5 67.5 67.5 67.5 67.5 67.5 67.5 67.5 67.5 67.5 67.5 67.5 67.5 67.5 67.5 67.5 67.5 67.5 67.5 67.5 67.5 67.5 67.5 67.5 67.5 67.5 67.5 67.5 67.5 67.5 67.5 67.5 67.5 67.5 67.5 67.5 67.5 67.5 67.5 67.5 67.5 67.5 67.5 67.5 67.5 67.5 67.5 67.5 67.5 67.5 67.5 67.5 67.5 67.5 67.5 67.5 67.5 67.5 
</DataArray>
<DataArray Name="Strain_11" format="ascii" type="Float64">
5.8191 5.81821 5.81792 5.81779 5.81774 4.52525 4.52547 4.52527 4.52512 4.52505 3.23223 3.23234 3.23237 3.23232 3.23229 1.93934 1.93938 1.93941 1.93942 1.93941 0.646443 0.646459 0.646469 0.646473 0.646474 -0.646443 -0.646459 -0.646469 -0.646473 -0.646474 -1.93934 -1.93938 -1.93941 -1.93942 -1.93941 -3.23223 -3.23234 -3.23237 -3.23232 -3.23229 -4.52525 -4.52547 -4.52527 -4.52512 -4.52505 -5.8191 -5.81821 -5.81792 -5.81779 -5.81774 5.81774 5.81779 5.81792 5.81821 5.8191 4.52505 4.52512 4.52527 4.52547 4.52525 3.23229 3.23232 3.23237 3.23234 3.23223 1.93941 1.93942 1.93941 1.93938 1.93934 0.646474 0.646473 0.646469 0.646459 0.646443 -0.646474 -0.646473 -0.646469 -0.646459 -0.646443 -1.93941 -1.93942 -1.93941 -1.93938 -1.93934 -3.23229 -3.23232 -3.23237 -3.23234 -3.23223 -4.52505 -4.52512 -4.52527 -4.52547 -4.52525 -5.81774 -5.81779 -5.81792 -5.81821 -5.8191 
</DataArray>
<DataArray Name="Strain_22" format="ascii" type="Float64">
10.2926 10.2925 10.2926 10.2927 10.2927 8.00565 8.00535 8.00527 8.00532 8.00535 5.71834 5.7182 5.71807 5.71803 5.71803 3.431 3.43093 3.43086 3.43081 3.4308 1.14366 1.14364 1.14362 1.14361 1.1436 -1.14366 -1.14364 -1.14362 -1.14361 -1.1436 -3.431 -3.43093 -3.43086 -3.43081 -3.4308 -5.71834 -5.7182 -5.71807 -5.71803 -5.71803 -8.00565 -8.00535 -8.00527 -8.00532 -8.00535 -10.2926 -10.2925 -10.2926 -10.2927 -10.2927 10.2927 10.2927 10.2926 10.2925 10.2926 8.00535 8.00532 8.00527 8.00535 8.00565 5.71803 5.71803 5.71807 5.7182 5.71834 3.4308 3.43081 3.43086 3.43093 3.431 1.1436 1.14361 1.14362 1.14364 1.14366 -1.1436 -1.14361 -1.14362 -1.14364 -1.14366 -3.4308 -3.43081 -3.43086 -3.43093 -3.431 -5.71803 -5.71803 -5.71807 -5.7182 -5.71834 -8.00535 -8.00532 -8.00527 -8.00535 -8.00565 -10.2927 -10.2927 -10.2926 -10.2925 -10.2926 
</DataArray>
<DataArray Name="Strain_12" format="ascii" type="Float64">
2.31211e-05 -0.000600777 -0.000374982 -0.000188928 -5.71712e-05 0.000514683 0.000252372 -9.79124e-05 -0.00012227 -4.72656e-05 0.000333324 0.000424071 0.000294416 0.000126934 3.3629e-05 0.000302893 0.000374366 0.000345495 0.000226961 7.60479e-05 0.000277337 0.00035224 0.000336261 0.000237234 8.48467e-05 0.000277337 0.00035224 0.000336261 0.000237234 8.48467e-05 0.000302893 0.000374366 0.000345495 0.000226961 7.60479e-05 0.000333324 0.000424071 0.000294416 0.000126934 3.3629e-05 0.000514683 0.000252372 -9.79124e-05 -0.00012227 -4.72656e-05 2.31211e-05 -0.000600777 -0.000374982 -0.000188928 -5.71712e-05 5.71712e-05 0.000188928 0.000374982 0.000600777 -2.31211e-05 4.72656e-05 0.00012227 9.79124e-05 -0.000252372 -0.000514683 -3.3629e-05 -0.000126934 -0.000294416 -0.000424071 -0.000333324 -7.60479e-05 -0.000226961 -0.000345495 -0.000374366 -0.000302893 -8.48467e-05 -0.000237234 -0.000336261 -0.00035224 -0.000277337 -8.48467e-05 -0.000237234 -0.000336261 -0.00035224 -0.000277337 -7.60479e-05 -0.000226961 -0.000345495 -0.000374366 -0.000302893 -3.3629e-05 -0.000126934 -0.000294416 -0.000424071 -0.000333324 4.72656e-05 0.00012227 9.79124e-05 -0.000252372 -0.000514683 5.71712e-05 0.000188928 0.000374982 0.000600777 -2.31211e-05 
</DataArray>
<DataArray Name="Strain_13" format="ascii" type="Float64">
2.27259 2.27636 2.27775 2.27842 2.2787 1.77239 1.77108 1.77152 1.77189 1.77207 1.26591 1.26565 1.26551 1.2656 1.26568 0.759617 0.759458 0.759384 0.75937 0.759385 0.253207 0.253165 0.253136 0.253127 0.253126 -0.253207 -0.253165 -0.253136 -0.253127 -0.253126 -0.759617 -0.759458 -0.759384 -0.75937 -0.759385 -1.26591 -1.26565 -1.26551 -1.2656 -1.26568 -1.77239 -1.77108 -1.77152 -1.77189 -1.77207 -2.27259 -2.27636 -2.27775 -2.27842 -2.2787 2.2787 2.27842 2.27775 2.27636 2.27259 1.77207 1.77189 1.77152 1.77108 1.77239 1.26568 1.2656 1.26551 1.26565 1.26591 0.759385 0.75937 0.759384 0.759458 0.759617 0.253126 0.253127 0.253136 0.253165 0.253207 -0.253126 -0.253127 -0.253136 -0.253165 -0.253207 -0.759385 -0.75937 -0.759384 -0.759458 -0.759617 -1.26568 -1.2656 -1.26551 -1.26565 -1.26591 -1.77207 -1.77189 -1.77152 -1.77108 -1.77239 -2.2787 -2.27842 -2.27775 -2.27636 -2.27259 
</DataArray>
<DataArray Name="Strain_23" format="ascii" type="Float64">
2.2726 1.77288 1.26674 0.760147 0.253395 2.27692 1.77116 1.2658 0.759639 0.253234 2.2778 1.77164 1.26556 0.759433 0.253159 2.27818 1.77185 1.26561 0.759381 0.253132 2.27832 1.77194 1.26564 0.75938 0.253126 2.27832 1.77194 1.26564 0.75938 0.253126 2.27818 1.77185 1.26561 0.759381 0.253132 2.2778 1.77164 1.26556 0.759433 0.253159 2.27692 1.77116 1.2658 0.759639 0.253234 2.2726 1.77288 1.26674 0.760147 0.253395 -0.253395 -0.760147 -1.26674 -1.77288 -2.2726 -0.253234 -0.759639 -1.2658 -1.77116 -2.27692 -0.253159 -0.759433 -1.26556 -1.77164 -2.2778 -0.253132 -0.759381 -1.26561 -1.77185 -2.27818 -0.253126 -0.75938 -1.26564 -1.77194 -2.27832 -0.253126 -0.75938 -1.26564 -1.77194 -2.27832 -0.253132 -0.759381 -1.26561 -1.77185 -2.27818 -0.253159 -0.759433 -1.26556 -1.77164 -2.2778 -0.253234 -0.759639 -1.2658 -1.77116 -2.27692 -0.253395 -0.760147 -1.26674 -1.77288 -2.2726 
</DataArray>
<DataArray Name="Strain_33" format="ascii" type="Float64">
-0.045 -0.045 -0.045 -0.045 -0.045 -0.035 -0.035 -0.035 -0.035 -0.035 -0.025 -0.025 -0.025 -0.025 -0.025 -0.015 -0.015 -0.015 -0.015 -0.015 -0.005 -0.005 -0.005 -0.005 -0.005 0.005 0.005 0.005 0.005 0.005 0.015 0.015 0.015 0.015 0.015 0.025 0.025 0.025 0.025 0.025 0.035 0.035 0.035 0.035 0.035 0.045 0.045 0.045 0.045 0.045 -0.045 -0.045 -0.045 -0.045 -0.045 -0.035 -0.035 -0.035 -0.035 -0.035 -0.025 -0.025 -0.025 -0.025 -0.025 -0.015 -0.015 -0.015 -0.015 -0.015 -0.005 -0.005 -0.005 -0.005 -0.005 0.005 0.005 0.005 0.005 0.005 0.015 0.015 0.015 0.015 0.015 0.025 0.025 0.025 0.025 0.025 0.035 0.035 0.035 0.035 0.035 0.045 0.045 0.045 0.045 0.045 
</DataArray>
<DataArray Name="Stress_11" format="ascii" type="Float64">
2886.32 2886.36 2886.39 2886.41 2886.42 2245.14 2245.09 2245.05 2245.03 2245.02 1603.63 1603.64 1603.64 1603.62 1603.62 962.185 962.183 962.185 962.184 962.182 320.727 320.729 320.729 320.729 320.729 -320.727 -320.729 -320.729 -320.729 -320.729 -962.185 -962.183 -962.185 -962.184 -962.182 -1603.63 -1603.64 -1603.64 -1603.62 -1603.62 -2245.14 -2245.09 -2245.05 -2245.03 -2245.02 -2886.32 -2886.36 -2886.39 -2886.41 -2886.42 2886.42 2886.41 2886.39 2886.36 2886.32 2245.02 2245.03 2245.05 2245.09 2245.14 1603.62 1603.62 1603.64 1603.64 1603.63 962.182 962.184 962.185 962.183 962.185 320.729 320.729 320.729 320.729 320.727 -320.729 -320.729 -320.729 -320.729 -320.727 -962.182 -962.184 -962.185 -962.183 -962.185 -1603.62 -1603.62 -1603.64 -1603.64 -1603.63 -2245.02 -2245.03 -2245.05 -2245.09 -2245.14 -2886.42 -2886.41 -2886.39 -2886.36 -2886.32 
</DataArray>
<DataArray Name="Stress_22" format="ascii" type="Float64">
1527.91 1527.88 1527.88 1527.88 1527.88 1188.39 1188.36 1188.34 1188.34 1188.34 848.848 848.834 848.819 848.811 848.81 509.308 509.301 509.293 509.287 509.285 169.769 169.767 169.764 169.762 169.761 -169.769 -169.767 -169.764 -169.762 -169.761 -509.308 -509.301 -509.293 -509.287 -509.285 -848.848 -848.834 -848.819 -848.811 -848.81 -1188.39 -1188.36 -1188.34 -1188.34 -1188.34 -1527.91 -1527.88 -1527.88 -1527.88 -1527.88 1527.88 1527.88 1527.88 1527.88 1527.91 1188.34 1188.34 1188.34 1188.36 1188.39 848.81 848.811 848.819 848.834 848.848 509.285 509.287 509.293 509.301 509.308 169.761 169.762 169.764 169.767 169.769 -169.761 -169.762 -169.764 -169.767 -169.769 -509.285 -509.287 -509.293 -509.301 -509.308 -848.81 -848.811 -848.819 -848.834 -848.848 -1188.34 -1188.34 -1188.34 -1188.36 -1188.39 -1527.88 -1527.88 -1527.88 -1527.88 -1527.91 
</DataArray>
<DataArray Name="Stress_12" format="ascii" type="Float64">
8.0362 6.23292 4.45665 2.67647 0.892539 8.08025 6.27678 4.46956 2.67857 0.89255 8.07276 6.28853 4.49168 2.69243 0.897022 8.07231 6.28634 4.49482 2.6981 0.89941 8.0713 6.28539 4.49441 2.6987 0.899903 8.0713 6.28539 4.49441 2.6987 0.899903 8.07231 6.28634 4.49482 2.6981 0.89941 8.07276 6.28853 4.49168 2.69243 0.897022 8.08025 6.27678 4.46956 2.67857 0.89255 8.0362 6.23292 4.45665 2.67647 0.892539 -0.892539 -2.67647 -4.45665 -6.23292 -8.0362 -0.89255 -2.67857 -4.46956 -6.27678 -8.08025 -0.897022 -2.69243 -4.49168 -6.28853 -8.07276 -0.89941 -2.6981 -4.49482 -6.28634 -8.07231 -0.899903 -2.6987 -4.49441 -6.28539 -8.0713 -0.899903 -2.6987 -4.49441 -6.28539 -8.0713 -0.89941 -2.6981 -4.49482 -6.28634 -8.07231 -0.897022 -2.69243 -4.49168 -6.28853 -8.07276 -0.89255 -2.67857 -4.46956 -6.27678 -8.08025 -0.892539 -2.67647 -4.45665 -6.23292 -8.0362 
</DataArray>
<DataArray Name="Stress_13" format="ascii" type="Float64">
815.922 816.205 816.314 816.368 816.391 635.012 634.906 634.928 634.949 634.96 453.563 453.549 453.538 453.542 453.546 272.145 272.133 272.129 272.128 272.129 90.7147 90.7122 90.7104 90.7099 90.71 -90.7147 -90.7122 -90.7104 -90.7099 -90.71 -272.145 -272.133 -272.129 -272.128 -272.129 -453.563 -453.549 -453.538 -453.542 -453.546 -635.012 -634.906 -634.928 -634.949 -634.96 -815.922 -816.205 -816.314 -816.368 -816.391 816.391 816.368 816.314 816.205 815.922 634.96 634.949 634.928 634.906 635.012 453.546 453.542 453.538 453.549 453.563 272.129 272.128 272.129 272.133 272.145 90.71 90.7099 90.7104 90.7122 90.7147 -90.71 -90.7099 -90.7104 -90.7122 -90.7147 -272.129 -272.128 -272.129 -272.133 -272.145 -453.546 -453.542 -453.538 -453.549 -453.563 -634.96 -634.949 -634.928 -634.906 -635.012 -816.391 -816.368 -816.314 -816.205 -815.922 
</DataArray>
<DataArray Name="Stress_23" format="ascii" type="Float64">
116.958 91.2384 65.1907 39.1199 13.0406 117.182 91.1529 65.1436 39.094 13.0324 117.227 91.1782 65.1326 39.0843 13.0288 117.246 91.1885 65.135 39.0819 13.0276 117.253 91.1934 65.1368 39.0819 13.0273 117.253 91.1934 65.1368 39.0819 13.0273 117.246 91.1885 65.135 39.0819 13.0276 117.227 91.1782 65.1326 39.0843 13.0288 117.182 91.1529 65.1436 39.094 13.0324 116.958 91.2384 65.1907 39.1199 13.0406 -13.0406 -39.1199 -65.1907 -91.2384 -116.958 -13.0324 -39.094 -65.1436 -91.1529 -117.182 -13.0288 -39.0843 -65.1326 -91.1782 -117.227 -13.0276 -39.0819 -65.135 -91.1885 -117.246 -13.0273 -39.0819 -65.1368 -91.1934 -117.253 -13.0273 -39.0819 -65.1368 -91.1934 -117.253 -13.0276 -39.0819 -65.135 -91.1885 -117.246 -13.0288 -39.0843 -65.1326 -91.1782 -117.227 -13.0324 -39.094 -65.1436 -91.1529 -117.182 -13.0406 -39.1199 -65.1907 -91.2384 -116.958 
</DataArray>
<DataArray Name="Stress_33" format="ascii" type="Float64">
823.498 823.524 823.539 823.549 823.553 640.574 640.548 640.541 640.541 640.541 457.545 457.542 457.536 457.534 457.533 274.529 274.525 274.523 274.522 274.521 91.5093 91.5087 91.5079 91.5074 91.5072 -91.5093 -91.5087 -91.5079 -91.5074 -91.5072 -274.529 -274.525 -274.523 -274.522 -274.521 -457.545 -457.542 -457.536 -457.534 -457.533 -640.574 -640.548 -640.541 -640.541 -640.541 -823.498 -823.524 -823.539 -823.549 -823.553 823.553 823.549 823.539 823.524 823.498 640.541 640.541 640.541 640.548 640.574 457.533 457.534 457.536 457.542 457.545 274.521 274.522 274.523 274.525 274.529 91.5072 91.5074 91.5079 91.5087 91.5093 -91.5072 -91.5074 -91.5079 -91.5087 -91.5093 -274.521 -274.522 -274.523 -274.525 -274.529 -457.533 -457.534 -457.536 -457.542 -457.545 -640.541 -640.541 -640.541 -640.548 -640.574 -823.553 -823.549 -823.539 -823.524 -823.498 
</DataArray>
</CellData>
<Points>
<DataArray NumberOfComponents="3" format="ascii" type="Float64">
-0.05 -0.05 0 -0.05 0 0 -0.05 -0.04 0 -0.05 -0.03 0 -0.05 -0.02 0 -0.05 -0.01 0 0 0 0 -0.04 0 0 -0.03 0 0 -0.02 0 0 -0.01 0 0 0 -0.05 0 0 -0.01 0 0 -0.02 0 0 -0.03 0 0 -0.04 0 -0.01 -0.05 0 -0.02 -0.05 0 -0.03 -0.05 0 -0.04 -0.05 0 -0.04 -0.04 0 -0.04 -0.03 0 -0.04 -0.02 0 -0.04 -0.01 0 -0.03 -0.04 0 -0.03 -0.03 0 -0.03 -0.02 0 -0.03 -0.01 0 -0.02 -0.04 0 -0.02 -0.03 0 -0.02 -0.02 0 -0.02 -0.01 0 -0.01 -0.04 0 -0.01 -0.03 0 -0.01 -0.02 0 -0.01 -0.01 0 -0.05 0.05 0 -0.05 0.01 0 -0.05 0.02 0 -0.05 0.03 0 -0.05 0.04 0 0 0.05 0 -0.04 0.05 0 -0.03 0.05 0 -0.02 0.05 0 -0.01 0.05 0 0 0.04 0 0 0.03 0 0 0.02 0 0 0.01 0 -0.04 0.01 0 -0.04 0.02 0 -0.04 0.03 0 -0.04 0.04 0 -0.03 0.01 0 -0.03 0.02 0 -0.03 0.03 0 -0.03 0.04 0 -0.02 0.01 0 -0.02 0.02 0 -0.02 0.03 0 -0.02 0.04 0 -0.01 0.01 0 -0.01 0.02 0 -0.01 0.03 0 -0.01 0.04 0 0.05 0 0 0.01 0 0 0.02 0 0 0.03 0 0 0.04 0 0 0.05 -0.05 0 0.05 -0.01 0 0.05 -0.02 0 0.05 -0.03 0 0.05 -0.04 0 0.04 -0.05 0 0.03 -0.05 0 0.02 -0.05 0 0.01 -0.05 0 0.01 -0.04 0 0.01 -0.03 0 0.01 -0.02 0 0.01 -0.01 0 0.02 -0.04 0 0.02 -0.03 0 0.02 -0.02 0 0.02 -0.01 0 0.03 -0.04 0 0.03 -0.03 0 0.03 -0.02 0 0.03 -0.01 0 0.04 -0.04 0 0.04 -0.03 0 0.04 -0.02 0 0.04 -0.01 0 0.05 0.05 0 0.01 0.05 0 0.02 0.05 0 0.03 0.05 0 0.04 0.05 0 0.05 0.04 0 0.05 0.03 0 0.05 0.02 0 0.05 0.01 0 0.01 0.01 0 0.01 0.02 0 0.01 0.03 0 0.01 0.04 0 0.02 0.01 0 0.02 0.02 0 0.02 0.03 0 0.02 0.04 0 0.03 0.01 0 0.03 0.02 0 0.03 0.03 0 0.03 0.04 0 0.04 0.01 0 0.04 0.02 0 0.04 0.03 0 0.04 0.04 0 
</DataArray>
</Points>
<Cells>
<DataArray Name="connectivity" format="ascii" type="Int64">
0 19 20 2 19 18 24 20 18 17 28 24 17 16 32 28 16 11 15 32 2 20 21 3 20 24 25 21 24 28 29 25 28 32 33 29 32 15 14 33 3 21 22 4 21 25 26 22 25 29 30 26 29 33 34 30 33 14 13 34 4 22 23 5 22 26 27 23 26 30 31 27 30 34 35 31 34 13 12 35 5 23 7 1 23 27 8 7 27 31 9 8 31 35 10 9 35 12 6 10 1 7 50 37 7 8 54 50 8 9 58 54 9 10 62 58 10 6 49 62 37 50 51 38 50 54 55 51 54 58 59 55 58 62 63 59 62 49 48 63 38 51 52 39 51 55 56 52 55 59 60 56 59 63 64 60 63 48 47 64 39 52 53 40 52 56 57 53 56 60 61 57 60 64 65 61 64 47 46 65 40 53 42 36 53 57 43 42 57 61 44 43 61 65 45 44 65 46 41 45 11 79 80 15 79 78 84 80 78 77 88 84 77 76 92 88 76 71 75 92 15 80 81 14 80 84 85 81 84 88 89 85 88 92 93 89 92 75 74 93 14 81 82 13 81 85 86 82 85 89 90 86 89 93 94 90 93 74 73 94 13 82 83 12 82 86 87 83 86 90 91 87 90 94 95 91 94 73 72 95 12 83 67 6 83 87 68 67 87 91 69 68 91 95 70 69 95 72 66 70 6 67 105 49 67 68 109 105 68 69 113 109 69 70 117 113 70 66 104 117 49 105 106 48 105 109 110 106 109 113 114 110 113 117 118 114 117 104 103 118 48 106 107 47 106 110 111 107 110 114 115 111 114 118 119 115 118 103 102 119 47 107 108 46 107 111 112 108 111 115 116 112 115 119 120 116 119 102 101 120 46 108 97 41 108 112 98 97 112 116 99 98 116 120 100 99 120 101 96 100 
</DataArray>
<DataArray Name="offsets" format="ascii" type="Int64">
4 8 12 16 20 24 28 32 36 40 44 48 52 56 60 64 68 72 76 80 84 88 92 96 100 104 108 112 116 120 124 128 132 136 140 144 148 152 156 160 164 168 172 176 180 184 188 192 196 200 204 208 212 216 220 224 228 232 236 240 244 248 252 256 260 264 268 272 276 280 284 288 292 296 300 304 308 312 316 320 324 328 332 336 340 344 348 352 356 360 364 368 372 376 380 384 388 392 396 400 
</DataArray>
<DataArray Name="types" format="ascii" type="Int8">
9 9 9 9 9 9 9 9 9 9 9 9 9 9 9 9 9 9 9 9 9 9 9 9 9 9 9 9 9 9 9 9 9 9 9 9 9 9 9 9 9 9 9 9 9 9 9 9 9 9 9 9 9 9 9 9 9 9 9 9 9 9 9 9 9 9 9 9 9 9 9 9 9 9 9 9 9 9 9 9 9 9 9 9 9 9 9 9 9 9 9 9 9 9 9 9 9 9 9 9 
</DataArray>
</Cells>
</Piece>
</UnstructuredGrid>
</VTKFile>
