<?xml version="1.0"?>
<VTKFile byte_order="LittleEndian" type="UnstructuredGrid" version="0.1">
<UnstructuredGrid>
<Piece NumberOfCells="100" NumberOfPoints="121">
<PointData>
<DataArray Name="Warping_X" format="ascii" type="Float64">
5.29045e-10 1.67775e-10 4.28312e-10 3.36661e-10 2.637e-10 2.09303e-10 2.1186e-25 1.75741e-10 1.56887e-10 1.1687e-10 6.21896e-11 -2.49625e-25 1.58497e-25 -3.4505e-26 -2.18975e-25 -3.23234e-25 1.63783e-10 3.14663e-10 4.39131e-10 5.20578e-10 4.34617e-10 3.44613e-10 2.71646e-10 2.17199e-10 3.7955e-10 3.05883e-10 2.42553e-10 1.94172e-10 2.77402e-10 2.27285e-10 1.81319e-10 1.45153e-10 1.45805e-10 1.20673e-10 9.67431e-11 7.74501e-11 -1.12401e-10 1.31023e-10 9.04992e-11 3.85492e-11 -3.00362e-11 -1.6042e-25 -9.40041e-11 -6.95094e-11 -4.55756e-11 -2.2558e-11 -7.80317e-26 1.89793e-26 1.03303e-25 1.5048e-25 1.39165e-10 9.8897e-11 4.73645e-11 -1.95472e-11 1.23927e-10 8.8024e-11 4.31943e-11 -1.19468e-11 9.17943e-11 6.48117e-11 3.21192e-11 -6.1584e-12 4.86308e-11 3.41774e-11 1.70598e-11 -2.44592e-12 -1.67775e-10 -6.21896e-11 -1.1687e-10 -1.56887e-10 -1.75741e-10 -5.29045e-10 -2.09303e-10 -2.637e-10 -3.36661e-10 -4.28312e-10 -5.20578e-10 -4.39131e-10 -3.14663e-10 -1.63783e-10 -1.45805e-10 -1.20673e-10 -9.67431e-11 -7.74501e-11 -2.77402e-10 -2.27285e-10 -1.81319e-10 -1.45153e-10 -3.7955e-10 -3.05883e-10 -2.42553e-10 -1.94172e-10 -4.34617e-10 -3.44613e-10 -2.71646e-10 -2.17199e-10 1.12401e-10 2.2558e-11 4.55756e-11 6.95094e-11 9.40041e-11 3.00362e-11 -3.85492e-11 -9.04992e-11 -1.31023e-10 -4.86308e-11 -3.41774e-11 -1.70598e-11 2.44592e-12 -9.17943e-11 -6.48117e-11 -3.21192e-11 6.1584e-12 -1.23927e-10 -8.8024e-11 -4.31943e-11 1.19468e-11 -1.39165e-10 -9.8897e-11 -4.73645e-11 1.95472e-11 
</DataArray>
<DataArray Name="Warping_Y" format="ascii" type="Float64">
-3.56829e-10 -1.03116e-10 -3.04922e-10 -2.5184e-10 -1.96347e-10 -1.45085e-10 1.60464e-10 -2.7401e-11 4.75589e-11 1.0828e-10 1.47148e-10 -1.68017e-10 1.24838e-10 7.73139e-11 1.40372e-11 -6.80816e-11 -1.73578e-10 -1.90616e-10 -2.21043e-10 -2.69048e-10 -2.07073e-10 -1.53524e-10 -1.05501e-10 -6.31213e-11 -1.4082e-10 -7.78907e-11 -2.75037e-11 1.37404e-11 -9.93236e-11 -2.60016e-11 3.04205e-11 7.40792e-11 -7.57568e-11 4.12482e-12 6.55713e-11 1.11974e-10 -4.19451e-11 -7.29589e-11 -5.47107e-11 -4.61533e-11 -4.27709e-11 1.85532e-10 3.56181e-11 9.7444e-11 1.44993e-10 1.75163e-10 2.05007e-10 2.1066e-10 2.03869e-10 1.86674e-10 8.93643e-13 2.15461e-11 3.47622e-11 4.01756e-11 7.46514e-11 9.48906e-11 1.07192e-10 1.09038e-10 1.34761e-10 1.53603e-10 1.63258e-10 1.61016e-10 1.73404e-10 1.91045e-10 1.98587e-10 1.93791e-10 -1.03116e-10 1.47148e-10 1.0828e-10 4.75589e-11 -2.7401e-11 -3.56829e-10 -1.45085e-10 -1.96347e-10 -2.5184e-10 -3.04922e-10 -2.69048e-10 -2.21043e-10 -1.90616e-10 -1.73578e-10 -7.57568e-11 4.12482e-12 6.55713e-11 1.11974e-10 -9.93236e-11 -2.60016e-11 3.04205e-11 7.40792e-11 -1.4082e-10 -7.78907e-11 -2.75037e-11 1.37404e-11 -2.07073e-10 -1.53524e-10 -1.05501e-10 -6.31213e-11 -4.19451e-11 1.75163e-10 1.44993e-10 9.7444e-11 3.56181e-11 -4.27709e-11 -4.61533e-11 -5.47107e-11 -7.29589e-11 1.73404e-10 1.91045e-10 1.98587e-10 1.93791e-10 1.34761e-10 1.53603e-10 1.63258e-10 1.61016e-10 7.46514e-11 9.48906e-11 1.07192e-10 1.09038e-10 8.93643e-13 2.15461e-11 3.47622e-11 4.01756e-11 
</DataArray>
<DataArray Name="Warping_Z" format="ascii" type="Float64">
0 0 0 0 0 0 0 0 0 0 0 0 0 0 0 0 0 0 0 0 0 0 0 0 0 0 0 0 0 0 0 0 0 0 0 0 0 0 0 0 0 0 0 0 0 0 0 0 0 0 0 0 0 0 0 0 0 0 0 0 0 0 0 0 0 0 0 0 0 0 0 0 0 0 0 0 0 0 0 0 0 0 0 0 0 0 0 0 0 0 0 0 0 0 0 0 0 0 0 0 0 0 0 0 0 0 0 0 0 0 0 0 0 0 0 0 0 0 0 0 0 
</DataArray>
</PointData>
<CellData>
<DataArray Name="MaterialId" format="ascii" type="Float64">
5 5 5 5 5 5 5 5 5 5 5 5 5 5 5 5 5 5 5 5 5 5 5 5 5 5 5 5 5 5 5 5 5 5 5 5 5 5 5 5 5 5 5 5 5 5 5 5 5 5 5 5 5 5 5 5 5 5 5 5 5 5 5 5 5 5 5 5 5 5 5 5 5 5 5 5 5 5 5 5 5 5 5 5 5 5 5 5 5 5 5 5 5 5 5 5 5 5 5 5 
</DataArray>
<DataArray Name="FiberAngle" format="ascii" type="Float64">
45 45 45 45 45 45 45 45 45 45 45 45 45 45 45 45 45 45 45 45 45 45 45 45 45 45 45 45 45 45 45 45 45 45 45 45 45 45 45 45 45 45 45 45 45 45 45 45 45 45 45 45 45 45 45 45 45 45 45 45 45 45 45 45 45 45 45 45 45 45 45 45 45 45 45 45 45 45 45 45 45 45 45 45 45 45 45 45 45 45 45 45 45 45 45 45 45 45 45 45 
</DataArray>
<DataArray Name="Strain_11" format="ascii" type="Float64">
-1.08115e-10 -6.82569e-09 -1.13308e-08 -1.41239e-08 -1.54794e-08 7.12801e-10 -4.68981e-09 -9.03728e-09 -1.19105e-08 -1.33239e-08 7.94844e-10 -3.39107e-09 -6.99163e-09 -9.55937e-09 -1.08708e-08 7.92081e-10 -2.60593e-09 -5.51268e-09 -7.61394e-09 -8.70966e-09 7.93134e-10 -2.09401e-09 -4.45184e-09 -6.11916e-09 -6.98198e-09 8.05447e-10 -1.7046e-09 -3.6075e-09 -4.89219e-09 -5.54102e-09 8.27008e-10 -1.30556e-09 -2.76725e-09 -3.68989e-09 -4.14041e-09 8.60653e-10 -7.52159e-10 -1.71437e-09 -2.28468e-09 -2.56186e-09 9.65215e-10 1.71512e-10 -2.64339e-10 -5.67345e-10 -7.30694e-10 1.44429e-09 1.60476e-09 1.4861e-09 1.3365e-09 1.2502e-09 -1.54794e-08 -1.41239e-08 -1.13308e-08 -6.82569e-09 -1.08115e-10 -1.33239e-08 -1.19105e-08 -9.03728e-09 -4.68981e-09 7.12801e-10 -1.08708e-08 -9.55937e-09 -6.99163e-09 -3.39107e-09 7.94844e-10 -8.70966e-09 -7.61394e-09 -5.51268e-09 -2.60593e-09 7.92081e-10 -6.98198e-09 -6.11916e-09 -4.45184e-09 -2.09401e-09 7.93134e-10 -5.54102e-09 -4.89219e-09 -3.6075e-09 -1.7046e-09 8.05447e-10 -4.14041e-09 -3.68989e-09 -2.76725e-09 -1.30556e-09 8.27008e-10 -2.56186e-09 -2.28468e-09 -1.71437e-09 -7.52159e-10 8.60653e-10 -7.30694e-10 -5.67345e-10 -2.64339e-10 1.71512e-10 9.65215e-10 1.2502e-09 1.3365e-09 1.4861e-09 1.60476e-09 1.44429e-09 
</DataArray>
<DataArray Name="Strain_22" format="ascii" type="Float64">
5.69414e-09 7.10993e-09 8.57577e-09 9.45568e-09 9.88781e-09 5.33152e-09 5.82388e-09 6.81257e-09 7.66018e-09 8.10002e-09 5.17579e-09 4.9205e-09 5.34045e-09 5.89343e-09 6.23615e-09 4.68209e-09 4.1812e-09 4.24514e-09 4.50307e-09 4.69632e-09 3.88449e-09 3.47695e-09 3.40098e-09 3.46876e-09 3.54006e-09 2.92256e-09 2.76935e-09 2.67869e-09 2.63686e-09 2.6233e-09 1.94503e-09 2.04458e-09 1.95404e-09 1.82413e-09 1.74176e-09 1.08868e-09 1.27587e-09 1.0978e-09 8.59825e-10 7.16644e-10 4.39789e-10 3.62987e-10 -1.97541e-11 -3.51886e-10 -5.22473e-10 -1.86583e-10 -8.07587e-10 -1.38089e-09 -1.73254e-09 -1.90512e-09 9.88781e-09 9.45568e-09 8.57577e-09 7.10993e-09 5.69414e-09 8.10002e-09 7.66018e-09 6.81257e-09 5.82388e-09 5.33152e-09 6.23615e-09 5.89343e-09 5.34045e-09 4.9205e-09 5.17579e-09 4.69632e-09 4.50307e-09 4.24514e-09 4.1812e-09 4.68209e-09 3.54006e-09 3.46876e-09 3.40098e-09 3.47695e-09 3.88449e-09 2.6233e-09 2.63686e-09 2.67869e-09 2.76935e-09 2.92256e-09 1.74176e-09 1.82413e-09 1.95404e-09 2.04458e-09 1.94503e-09 7.16644e-10 8.59825e-10 1.0978e-09 1.27587e-09 1.08868e-09 -5.22473e-10 -3.51886e-10 -1.97541e-11 3.62987e-10 4.39789e-10 -1.90512e-09 -1.73254e-09 -1.38089e-09 -8.07587e-10 -1.86583e-10 
</DataArray>
<DataArray Name="Strain_12" format="ascii" type="Float64">
-5.31739e-11 -1.56425e-09 -1.24593e-09 -7.31729e-10 -2.37101e-10 7.2548e-10 -1.08922e-09 -1.51991e-09 -1.07778e-09 -3.77184e-10 2.16165e-09 8.66705e-10 2.58771e-11 -2.30957e-10 -1.13764e-10 3.19825e-09 2.60156e-09 1.6858e-09 8.79315e-10 2.65663e-10 3.73463e-09 3.65395e-09 2.7746e-09 1.66095e-09 5.45973e-10 3.81196e-09 3.95906e-09 3.13976e-09 1.94381e-09 6.51388e-10 3.46589e-09 3.54656e-09 2.79685e-09 1.73243e-09 5.82033e-10 2.6845e-09 2.4706e-09 1.86282e-09 1.14804e-09 3.88954e-10 1.41825e-09 9.61981e-10 7.31269e-10 5.15987e-10 1.89167e-10 1.84404e-10 -6.65452e-11 1.2736e-10 1.70751e-10 7.36171e-11 2.37101e-10 7.31729e-10 1.24593e-09 1.56425e-09 5.31739e-11 3.77184e-10 1.07778e-09 1.51991e-09 1.08922e-09 -7.2548e-10 1.13764e-10 2.30957e-10 -2.58771e-11 -8.66705e-10 -2.16165e-09 -2.65663e-10 -8.79315e-10 -1.6858e-09 -2.60156e-09 -3.19825e-09 -5.45973e-10 -1.66095e-09 -2.7746e-09 -3.65395e-09 -3.73463e-09 -6.51388e-10 -1.94381e-09 -3.13976e-09 -3.95906e-09 -3.81196e-09 -5.82033e-10 -1.73243e-09 -2.79685e-09 -3.54656e-09 -3.46589e-09 -3.88954e-10 -1.14804e-09 -1.86282e-09 -2.4706e-09 -2.6845e-09 -1.89167e-10 -5.15987e-10 -7.31269e-10 -9.61981e-10 -1.41825e-09 -7.36171e-11 -1.70751e-10 -1.2736e-10 6.65452e-11 -1.84404e-10 
</DataArray>
<DataArray Name="Strain_13" format="ascii" type="Float64">
1 1 1 1 1 1 1 1 1 1 1 1 1 1 1 1 1 1 1 1 1 1 1 1 1 1 1 1 1 1 1 1 1 1 1 1 1 1 1 1 1 1 1 1 1 1 1 1 1 1 1 1 1 1 1 1 1 1 1 1 1 1 1 1 1 1 1 1 1 1 1 1 1 1 1 1 1 1 1 1 1 1 1 1 1 1 1 1 1 1 1 1 1 1 1 1 1 1 1 1 
</DataArray>
<DataArray Name="Strain_23" format="ascii" type="Float64">
1.47462e-08 1.47966e-08 1.14581e-08 7.14316e-09 2.4204e-09 -5.08074e-09 -2.2948e-10 1.49869e-09 1.44706e-09 5.65152e-10 -1.43028e-08 -8.53478e-09 -4.69446e-09 -2.2752e-09 -6.72194e-10 -1.83486e-08 -1.24418e-08 -7.83005e-09 -4.2584e-09 -1.34513e-09 -1.91643e-08 -1.35072e-08 -8.80868e-09 -4.92508e-09 -1.57935e-09 -1.761e-08 -1.24356e-08 -8.12046e-09 -4.5436e-09 -1.45747e-09 -1.39014e-08 -9.41517e-09 -5.90517e-09 -3.19795e-09 -1.00709e-09 -7.70188e-09 -4.18544e-09 -1.99432e-09 -8.03651e-10 -2.03933e-10 2.06261e-09 4.10946e-09 4.08828e-09 2.84887e-09 1.01068e-09 1.87318e-08 1.68123e-08 1.26457e-08 7.78438e-09 2.62398e-09 -2.4204e-09 -7.14316e-09 -1.14581e-08 -1.47966e-08 -1.47462e-08 -5.65152e-10 -1.44706e-09 -1.49869e-09 2.2948e-10 5.08074e-09 6.72194e-10 2.2752e-09 4.69446e-09 8.53478e-09 1.43028e-08 1.34513e-09 4.2584e-09 7.83005e-09 1.24418e-08 1.83486e-08 1.57935e-09 4.92508e-09 8.80868e-09 1.35072e-08 1.91643e-08 1.45747e-09 4.5436e-09 8.12046e-09 1.24356e-08 1.761e-08 1.00709e-09 3.19795e-09 5.90517e-09 9.41517e-09 1.39014e-08 2.03933e-10 8.03651e-10 1.99432e-09 4.18544e-09 7.70188e-09 -1.01068e-09 -2.84887e-09 -4.08828e-09 -4.10946e-09 -2.06261e-09 -2.62398e-09 -7.78438e-09 -1.26457e-08 -1.68123e-08 -1.87318e-08 
</DataArray>
<DataArray Name="Strain_33" format="ascii" type="Float64">
-2.34798e-09 -5.58761e-10 7.82641e-10 1.67692e-09 2.12405e-09 -2.34721e-09 -5.58592e-10 7.8248e-10 1.67657e-09 2.12363e-09 -2.34698e-09 -5.58467e-10 7.82536e-10 1.67642e-09 2.12336e-09 -2.34703e-09 -5.5851e-10 7.82586e-10 1.67647e-09 2.12336e-09 -2.34709e-09 -5.5857e-10 7.8259e-10 1.67652e-09 2.12342e-09 -2.34709e-09 -5.5857e-10 7.8259e-10 1.67652e-09 2.12342e-09 -2.34703e-09 -5.5851e-10 7.82586e-10 1.67647e-09 2.12336e-09 -2.34698e-09 -5.58467e-10 7.82536e-10 1.67642e-09 2.12336e-09 -2.34721e-09 -5.58592e-10 7.8248e-10 1.67657e-09 2.12363e-09 -2.34798e-09 -5.58761e-10 7.82641e-10 1.67692e-09 2.12405e-09 2.12405e-09 1.67692e-09 7.82641e-10 -5.58761e-10 -2.34798e-09 2.12363e-09 1.67657e-09 7.8248e-10 -5.58592e-10 -2.34721e-09 2.12336e-09 1.67642e-09 7.82536e-10 -5.58467e-10 -2.34698e-09 2.12336e-09 1.67647e-09 7.82586e-10 -5.5851e-10 -2.34703e-09 2.12342e-09 1.67652e-09 7.8259e-10 -5.5857e-10 -2.34709e-09 2.12342e-09 1.67652e-09 7.8259e-10 -5.5857e-10 -2.34709e-09 2.12336e-09 1.67647e-09 7.82586e-10 -5.5851e-10 -2.34703e-09 2.12336e-09 1.67642e-09 7.82536e-10 -5.58467e-10 -2.34698e-09 2.12363e-09 1.67657e-09 7.8248e-10 -5.58592e-10 -2.34721e-09 2.12405e-09 1.67692e-09 7.82641e-10 -5.58761e-10 -2.34798e-09 
</DataArray>
<DataArray Name="Stress_11" format="ascii" type="Float64">
7.57719e+09 7.57719e+09 7.57719e+09 7.57719e+09 7.57719e+09 7.57719e+09 7.57719e+09 7.57719e+09 7.57719e+09 7.57719e+09 7.57719e+09 7.57719e+09 7.57719e+09 7.57719e+09 7.57719e+09 7.57719e+09 7.57719e+09 7.57719e+09 7.57719e+09 7.57719e+09 7.57719e+09 7.57719e+09 7.57719e+09 7.57719e+09 7.57719e+09 7.57719e+09 7.57719e+09 7.57719e+09 7.57719e+09 7.57719e+09 7.57719e+09 7.57719e+09 7.57719e+09 7.57719e+09 7.57719e+09 7.57719e+09 7.57719e+09 7.57719e+09 7.57719e+09 7.57719e+09 7.57719e+09 7.57719e+09 7.57719e+09 7.57719e+09 7.57719e+09 7.57719e+09 7.57719e+09 7.57719e+09 7.57719e+09 7.57719e+09 7.57719e+09 7.57719e+09 7.57719e+09 7.57719e+09 7.57719e+09 7.57719e+09 7.57719e+09 7.57719e+09 7.57719e+09 7.57719e+09 7.57719e+09 7.57719e+09 7.57719e+09 7.57719e+09 7.57719e+09 7.57719e+09 7.57719e+09 7.57719e+09 7.57719e+09 7.57719e+09 7.57719e+09 7.57719e+09 7.57719e+09 7.57719e+09 7.57719e+09 7.57719e+09 7.57719e+09 7.57719e+09 7.57719e+09 7.57719e+09 7.57719e+09 7.57719e+09 7.57719e+09 7.57719e+09 7.57719e+09 7.57719e+09 7.57719e+09 7.57719e+09 7.57719e+09 7.57719e+09 7.57719e+09 7.57719e+09 7.57719e+09 7.57719e+09 7.57719e+09 7.57719e+09 7.57719e+09 7.57719e+09 7.57719e+09 7.57719e+09 
</DataArray>
<DataArray Name="Stress_22" format="ascii" type="Float64">
-1.75769e+08 -1.75769e+08 -1.75769e+08 -1.75769e+08 -1.75769e+08 -1.75769e+08 -1.75769e+08 -1.75769e+08 -1.75769e+08 -1.75769e+08 -1.75769e+08 -1.75769e+08 -1.75769e+08 -1.75769e+08 -1.75769e+08 -1.75769e+08 -1.75769e+08 -1.75769e+08 -1.75769e+08 -1.75769e+08 -1.75769e+08 -1.75769e+08 -1.75769e+08 -1.75769e+08 -1.75769e+08 -1.75769e+08 -1.75769e+08 -1.75769e+08 -1.75769e+08 -1.75769e+08 -1.75769e+08 -1.75769e+08 -1.75769e+08 -1.75769e+08 -1.75769e+08 -1.75769e+08 -1.75769e+08 -1.75769e+08 -1.75769e+08 -1.75769e+08 -1.75769e+08 -1.75769e+08 -1.75769e+08 -1.75769e+08 -1.75769e+08 -1.75769e+08 -1.75769e+08 -1.75769e+08 -1.75769e+08 -1.75769e+08 -1.75769e+08 -1.75769e+08 -1.75769e+08 -1.75769e+08 -1.75769e+08 -1.75769e+08 -1.75769e+08 -1.75769e+08 -1.75769e+08 -1.75769e+08 -1.75769e+08 -1.75769e+08 -1.75769e+08 -1.75769e+08 -1.75769e+08 -1.75769e+08 -1.75769e+08 -1.75769e+08 -1.75769e+08 -1.75769e+08 -1.75769e+08 -1.75769e+08 -1.75769e+08 -1.75769e+08 -1.75769e+08 -1.75769e+08 -1.75769e+08 -1.75769e+08 -1.75769e+08 -1.75769e+08 -1.75769e+08 -1.75769e+08 -1.75769e+08 -1.75769e+08 -1.75769e+08 -1.75769e+08 -1.75769e+08 -1.75769e+08 -1.75769e+08 -1.75769e+08 -1.75769e+08 -1.75769e+08 -1.75769e+08 -1.75769e+08 -1.75769e+08 -1.75769e+08 -1.75769e+08 -1.75769e+08 -1.75769e+08 -1.75769e+08 
</DataArray>
<DataArray Name="Stress_12" format="ascii" type="Float64">
2.96177 -2.74759 -2.25871 -1.23775 -0.378371 1.65648 -4.17247 -5.43214 -3.76954 -1.3066 5.11497 1.4502 -0.909003 -1.36232 -0.574841 8.17121 7.17945 4.70204 2.41522 0.717136 10.0267 10.9347 8.61379 5.2311 1.72801 10.6528 12.3196 10.1437 6.38369 2.1532 10.1383 11.406 9.3208 5.87215 1.98727 8.51011 8.45469 6.62392 4.1735 1.42864 5.8112 4.52306 3.64515 2.56435 0.932882 4.71602 3.35433 3.19462 2.31613 0.841522 0.378371 1.23775 2.25871 2.74759 -2.96177 1.3066 3.76954 5.43214 4.17247 -1.65648 0.574841 1.36232 0.909003 -1.4502 -5.11497 -0.717136 -2.41522 -4.70204 -7.17945 -8.17121 -1.72801 -5.2311 -8.61379 -10.9347 -10.0267 -2.1532 -6.38369 -10.1437 -12.3196 -10.6528 -1.98727 -5.87215 -9.3208 -11.406 -10.1383 -1.42864 -4.1735 -6.62392 -8.45469 -8.51011 -0.932882 -2.56435 -3.64515 -4.52306 -5.8112 -0.841522 -2.31613 -3.19462 -3.35433 -4.71602 
</DataArray>
<DataArray Name="Stress_13" format="ascii" type="Float64">
1.13244e+10 1.13244e+10 1.13244e+10 1.13244e+10 1.13244e+10 1.13244e+10 1.13244e+10 1.13244e+10 1.13244e+10 1.13244e+10 1.13244e+10 1.13244e+10 1.13244e+10 1.13244e+10 1.13244e+10 1.13244e+10 1.13244e+10 1.13244e+10 1.13244e+10 1.13244e+10 1.13244e+10 1.13244e+10 1.13244e+10 1.13244e+10 1.13244e+10 1.13244e+10 1.13244e+10 1.13244e+10 1.13244e+10 1.13244e+10 1.13244e+10 1.13244e+10 1.13244e+10 1.13244e+10 1.13244e+10 1.13244e+10 1.13244e+10 1.13244e+10 1.13244e+10 1.13244e+10 1.13244e+10 1.13244e+10 1.13244e+10 1.13244e+10 1.13244e+10 1.13244e+10 1.13244e+10 1.13244e+10 1.13244e+10 1.13244e+10 1.13244e+10 1.13244e+10 1.13244e+10 1.13244e+10 1.13244e+10 1.13244e+10 1.13244e+10 1.13244e+10 1.13244e+10 1.13244e+10 1.13244e+10 1.13244e+10 1.13244e+10 1.13244e+10 1.13244e+10 1.13244e+10 1.13244e+10 1.13244e+10 1.13244e+10 1.13244e+10 1.13244e+10 1.13244e+10 1.13244e+10 1.13244e+10 1.13244e+10 1.13244e+10 1.13244e+10 1.13244e+10 1.13244e+10 1.13244e+10 1.13244e+10 1.13244e+10 1.13244e+10 1.13244e+10 1.13244e+10 1.13244e+10 1.13244e+10 1.13244e+10 1.13244e+10 1.13244e+10 1.13244e+10 1.13244e+10 1.13244e+10 1.13244e+10 1.13244e+10 1.13244e+10 1.13244e+10 1.13244e+10 1.13244e+10 1.13244e+10 
</DataArray>
<DataArray Name="Stress_23" format="ascii" type="Float64">
55.8104 55.677 43.1074 26.8835 9.11157 -19.0775 -1.10233 5.34727 5.24667 2.05848 -53.6796 -32.1225 -17.7653 -8.66231 -2.56899 -68.7726 -46.5404 -29.2791 -15.9316 -5.03501 -71.7455 -50.3478 -32.7501 -18.2876 -5.86154 -65.8451 -46.2259 -30.0665 -16.7828 -5.37753 -51.8802 -34.8804 -21.7541 -11.7342 -3.6875 -28.5796 -15.314 -7.14992 -2.79597 -0.688556 8.11221 15.7627 15.633 10.8951 3.8665 70.9486 63.6286 47.8976 29.5044 9.94888 -9.11157 -26.8835 -43.1074 -55.677 -55.8104 -2.05848 -5.24667 -5.34727 1.10233 19.0775 2.56899 8.66231 17.7653 32.1225 53.6796 5.03501 15.9316 29.2791 46.5404 68.7726 5.86154 18.2876 32.7501 50.3478 71.7455 5.37753 16.7828 30.0665 46.2259 65.8451 3.6875 11.7342 21.7541 34.8804 51.8802 0.688556 2.79597 7.14992 15.314 28.5796 -3.8665 -10.8951 -15.633 -15.7627 -8.11221 -9.94888 -29.5044 -47.8976 -63.6286 -70.9486 
</DataArray>
<DataArray Name="Stress_33" format="ascii" type="Float64">
7.57719e+09 7.57719e+09 7.57719e+09 7.57719e+09 7.57719e+09 7.57719e+09 7.57719e+09 7.57719e+09 7.57719e+09 7.57719e+09 7.57719e+09 7.57719e+09 7.57719e+09 7.57719e+09 7.57719e+09 7.57719e+09 7.57719e+09 7.57719e+09 7.57719e+09 7.57719e+09 7.57719e+09 7.57719e+09 7.57719e+09 7.57719e+09 7.57719e+09 7.57719e+09 7.57719e+09 7.57719e+09 7.57719e+09 7.57719e+09 7.57719e+09 7.57719e+09 7.57719e+09 7.57719e+09 7.57719e+09 7.57719e+09 7.57719e+09 7.57719e+09 7.57719e+09 7.57719e+09 7.57719e+09 7.57719e+09 7.57719e+09 7.57719e+09 7.57719e+09 7.57719e+09 7.57719e+09 7.57719e+09 7.57719e+09 7.57719e+09 7.57719e+09 7.57719e+09 7.57719e+09 7.57719e+09 7.57719e+09 7.57719e+09 7.57719e+09 7.57719e+09 7.57719e+09 7.57719e+09 7.57719e+09 7.57719e+09 7.57719e+09 7.57719e+09 7.57719e+09 7.57719e+09 7.57719e+09 7.57719e+09 7.57719e+09 7.57719e+09 7.57719e+09 7.57719e+09 7.57719e+09 7.57719e+09 7.57719e+09 7.57719e+09 7.57719e+09 7.57719e+09 7.57719e+09 7.57719e+09 7.57719e+09 7.57719e+09 7.57719e+09 7.57719e+09 7.57719e+09 7.57719e+09 7.57719e+09 7.57719e+09 7.57719e+09 7.57719e+09 7.57719e+09 7.57719e+09 7.57719e+09 7.57719e+09 7.57719e+09 7.57719e+09 7.57719e+09 7.57719e+09 7.57719e+09 7.57719e+09 
</DataArray>
</CellData>
<Points>
<DataArray NumberOfComponents="3" format="ascii" type="Float64">
0 0 0 0 0.05 0 0 0.01 0 0 0.02 0 0 0.03 0 0 0.04 0 0.05 0.05 0 0.01 0.05 0 0.02 0.05 0 0.03 0.05 0 0.04 0.05 0 0.05 0 0 0.05 0.04 0 0.05 0.03 0 0.05 0.02 0 0.05 0.01 0 0.04 0 0 0.03 0 0 0.02 0 0 0.01 0 0 0.01 0.01 0 0.01 0.02 0 0.01 0.03 0 0.01 0.04 0 0.02 0.01 0 0.02 0.02 0 0.02 0.03 0 0.02 0.04 0 0.03 0.01 0 0.03 0.02 0 0.03 0.03 0 0.03 0.04 0 0.04 0.01 0 0.04 0.02 0 0.04 0.03 0 0.04 0.04 0 0 0.1 0 0 0.06 0 0 0.07 0 0 0.08 0 0 0.09 0 0.05 0.1 0 0.01 0.1 0 0.02 0.1 0 0.03 0.1 0 0.04 0.1 0 0.05 0.09 0 0.05 0.08 0 0.05 0.07 0 0.05 0.06 0 0.01 0.06 0 0.01 0.07 0 0.01 0.08 0 0.01 0.09 0 0.02 0.06 0 0.02 0.07 0 0.02 0.08 0 0.02 0.09 0 0.03 0.06 0 0.03 0.07 0 0.03 0.08 0 0.03 0.09 0 0.04 0.06 0 0.04 0.07 0 0.04 0.08 0 0.04 0.09 0 0.1 0.05 0 0.06 0.05 0 0.07 0.05 0 0.08 0.05 0 0.09 0.05 0 0.1 0 0 0.1 0.04 0 0.1 0.03 0 0.1 0.02 0 0.1 0.01 0 0.09 0 0 0.08 0 0 0.07 0 0 0.06 0 0 0.06 0.01 0 0.06 0.02 0 0.06 0.03 0 0.06 0.04 0 0.07 0.01 0 0.07 0.02 0 0.07 0.03 0 0.07 0.04 0 0.08 0.01 0 0.08 0.02 0 0.08 0.03 0 0.08 0.04 0 0.09 0.01 0 0.09 0.02 0 0.09 0.03 0 0.09 0.04 0 0.1 0.1 0 0.06 0.1 0 0.07 0.1 0 0.08 0.1 0 0.09 0.1 0 0.1 0.09 0 0.1 0.08 0 0.1 0.07 0 0.1 0.06 0 0.06 0.06 0 0.06 0.07 0 0.06 0.08 0 0.06 0.09 0 0.07 0.06 0 0.07 0.07 0 0.07 0.08 0 0.07 0.09 0 0.08 0.06 0 0.08 0.07 0 0.08 0.08 0 0.08 0.09 0 0.09 0.06 0 0.09 0.07 0 0.09 0.08 0 0.09 0.09 0 
</DataArray>
</Points>
<Cells>
<DataArray Name="connectivity" format="ascii" type="Int64">
0 19 20 2 19 18 24 20 18 17 28 24 17 16 32 28 16 11 15 32 2 20 21 3 20 24 25 21 24 28 29 25 28 32 33 29 32 15 14 33 3 21 22 4 21 25 26 22 25 29 30 26 29 33 34 30 33 14 13 34 4 22 23 5 22 26 27 23 26 30 31 27 30 34 35 31 34 13 12 35 5 23 7 1 23 27 8 7 27 31 9 8 31 35 10 9 35 12 6 10 1 7 50 37 7 8 54 50 8 9 58 54 9 10 62 58 10 6 49 62 37 50 51 38 50 54 55 51 54 58 59 55 58 62 63 59 62 49 48 63 38 51 52 39 51 55 56 52 55 59 60 56 59 63 64 60 63 48 47 64 39 52 53 40 52 56 57 53 56 60 61 57 60 64 65 61 64 47 46 65 40 53 42 36 53 57 43 42 57 61 44 43 61 65 45 44 65 46 41 45 11 79 80 15 79 78 84 80 78 77 88 84 77 76 92 88 76 71 75 92 15 80 81 14 80 84 85 81 84 88 89 85 88 92 93 89 92 75 74 93 14 81 82 13 81 85 86 82 85 89 90 86 89 93 94 90 93 74 73 94 13 82 83 12 82 86 87 83 86 90 91 87 90 94 95 91 94 73 72 95 12 83 67 6 83 87 68 67 87 91 69 68 91 95 70 69 95 72 66 70 6 67 105 49 67 68 109 105 68 69 113 109 69 70 117 113 70 66 104 117 49 105 106 48 105 109 110 106 109 113 114 110 113 117 118 114 117 104 103 118 48 106 107 47 106 110 111 107 110 114 115 111 114 118 119 115 118 103 102 119 47 107 108 46 107 111 112 108 111 115 116 112 115 119 120 116 119 102 101 120 46 108 97 41 108 112 98 97 112 116 99 98 116 120 100 99 120 101 96 100 
</DataArray>
<DataArray Name="offsets" format="ascii" type="Int64">
4 8 12 16 20 24 28 32 36 40 44 48 52 56 60 64 68 72 76 80 84 88 92 96 100 104 108 112 116 120 124 128 132 136 140 144 148 152 156 160 164 168 172 176 180 184 188 192 196 200 204 208 212 216 220 224 228 232 236 240 244 248 252 256 260 264 268 272 276 280 284 288 292 296 300 304 308 312 316 320 324 328 332 336 340 344 348 352 356 360 364 368 372 376 380 384 388 392 396 400 
</DataArray>
<DataArray Name="types" format="ascii" type="Int8">
9 9 9 9 9 9 9 9 9 9 9 9 9 9 9 9 9 9 9 9 9 9 9 9 9 9 9 9 9 9 9 9 9 9 9 9 9 9 9 9 9 9 9 9 9 9 9 9 9 9 9 9 9 9 9 9 9 9 9 9 9 9 9 9 9 9 9 9 9 9 9 9 9 9 9 9 9 9 9 9 9 9 9 9 9 9 9 9 9 9 9 9 9 9 9 9 9 9 9 9 
</DataArray>
</Cells>
</Piece>
</UnstructuredGrid>
</VTKFile>
