<?xml version="1.0"?>
<VTKFile byte_order="LittleEndian" type="UnstructuredGrid" version="0.1">
<UnstructuredGrid>
<Piece NumberOfCells="100" NumberOfPoints="121">
<PointData>
<DataArray Name="Warping_X" format="ascii" type="Float64">
7.43406e-10 3.99283e-10 7.03239e-10 6.48388e-10 5.79415e-10 4.96374e-10 -3.31656e-11 2.71427e-10 1.64248e-10 7.7748e-11 1.1939e-11 -2.08821e-10 -4.01996e-11 -6.13015e-11 -9.64679e-11 -1.45671e-10 -5.96532e-11 1.10163e-10 3.00614e-10 5.11692e-10 4.921e-10 4.58079e-10 4.0992e-10 3.47698e-10 3.01557e-10 2.88392e-10 2.61081e-10 2.19693e-10 1.31772e-10 1.39386e-10 1.32915e-10 1.12364e-10 -1.72985e-11 1.11007e-11 2.54498e-11 2.57288e-11 -2.97433e-10 2.88145e-10 1.62963e-10 2.37296e-11 -1.29601e-10 -2.08821e-10 -3.20997e-10 -3.2392e-10 -3.06199e-10 -2.67835e-10 -1.45671e-10 -9.64679e-11 -6.13015e-11 -4.01996e-11 1.81113e-10 7.67564e-11 -4.16478e-11 -1.74147e-10 9.47543e-11 1.12103e-11 -8.63942e-11 -1.9811e-10 2.90727e-11 -3.36624e-11 -1.10465e-10 -2.01333e-10 -1.59165e-11 -5.78377e-11 -1.13823e-10 -1.8385e-10 5.1783e-11 -5.7561e-11 -6.1252e-11 -4.42517e-11 -6.57306e-12 -6.44933e-10 -5.93547e-11 -1.84537e-10 -3.2377e-10 -4.77101e-10 -5.98997e-10 -5.3242e-10 -4.45199e-10 -3.37335e-10 -2.5335e-10 -1.83323e-10 -1.27338e-10 -8.54165e-11 -3.40333e-10 -2.49465e-10 -1.72662e-10 -1.09927e-10 -4.0661e-10 -2.94894e-10 -1.9729e-10 -1.13746e-10 -4.52147e-10 -3.19648e-10 -2.01244e-10 -9.68874e-11 3.95906e-10 -1.29153e-10 -2.88368e-11 9.21137e-11 2.33692e-10 3.55739e-10 3.00888e-10 2.31915e-10 1.48874e-10 -4.37712e-11 -4.40502e-11 -5.83993e-11 -8.67985e-11 -2.66359e-11 -6.08493e-12 3.8596e-13 -7.22777e-12 1.11926e-11 5.25807e-11 7.98918e-11 9.30566e-11 6.96975e-11 1.3192e-10 1.80079e-10 2.141e-10 
</DataArray>
<DataArray Name="Warping_Y" format="ascii" type="Float64">
4.19393e-10 -2.26564e-10 2.61598e-10 1.18263e-10 -1.08161e-11 -1.25744e-10 3.36733e-11 -1.32869e-10 -6.00032e-11 -7.95985e-12 2.32651e-11 3.2721e-10 6.42137e-11 1.08835e-10 1.67541e-10 2.40332e-10 3.86877e-10 4.25763e-10 4.43937e-10 4.41471e-10 2.98585e-10 1.69642e-10 5.47221e-11 -4.61166e-11 3.14998e-10 2.0019e-10 9.94067e-11 1.2668e-11 3.10853e-10 2.1005e-10 1.2332e-10 5.06467e-11 2.85982e-10 1.99185e-10 1.26471e-10 6.78311e-11 -5.20315e-10 -3.13295e-10 -3.85959e-10 -4.44595e-10 -4.89306e-10 9.22103e-11 -3.55134e-10 -2.11886e-10 -8.96197e-11 1.17239e-11 5.23319e-11 2.65406e-11 1.48355e-11 1.72137e-11 -2.05537e-10 -2.64123e-10 -3.08624e-10 -3.38996e-10 -1.18593e-10 -1.63087e-10 -1.93463e-10 -2.09701e-10 -5.24856e-11 -8.29163e-11 -9.92397e-11 -1.01465e-10 -7.22024e-12 -2.36173e-11 -2.5922e-11 -1.41372e-11 -2.26564e-10 2.32651e-11 -7.95985e-12 -6.00032e-11 -1.32869e-10 -2.85315e-10 -2.66295e-10 -2.91959e-10 -3.03595e-10 -3.01306e-10 -1.20134e-10 2.31139e-11 1.4538e-10 2.46724e-10 1.73863e-10 1.15078e-10 7.03827e-11 3.97798e-11 8.65345e-11 4.17603e-11 1.10837e-11 -5.48562e-12 -2.17012e-11 -5.24634e-11 -6.90866e-11 -7.15928e-11 -1.50996e-10 -1.67624e-10 -1.70123e-10 -1.58537e-10 1.84393e-10 1.51877e-10 1.90763e-10 2.08937e-10 2.06471e-10 7.35983e-11 -2.27374e-11 -1.04816e-10 -1.72744e-10 2.08311e-11 3.24714e-11 5.81853e-11 9.79817e-11 3.6467e-12 2.932e-11 6.905e-11 1.22853e-10 -3.4332e-11 5.40675e-12 5.91895e-11 1.26998e-10 -9.31166e-11 -3.92779e-11 2.86416e-11 1.10585e-10 
</DataArray>
<DataArray Name="Warping_Z" format="ascii" type="Float64">
0 0 0 0 0 0 0 0 0 0 0 0 0 0 0 0 0 0 0 0 0 0 0 0 0 0 0 0 0 0 0 0 0 0 0 0 0 0 0 0 0 0 0 0 0 0 0 0 0 0 0 0 0 0 0 0 0 0 0 0 0 0 0 0 0 0 0 0 0 0 0 0 0 0 0 0 0 0 0 0 0 0 0 0 0 0 0 0 0 0 0 0 0 0 0 0 0 0 0 0 0 0 0 0 0 0 0 0 0 0 0 0 0 0 0 0 0 0 0 0 0 
</DataArray>
</PointData>
<CellData>
<DataArray Name="MaterialId" format="ascii" type="Float64">
5 5 5 5 5 5 5 5 5 5 5 5 5 5 5 5 5 5 5 5 5 5 5 5 5 5 5 5 5 5 5 5 5 5 5 5 5 5 5 5 5 5 5 5 5 5 5 5 5 5 5 5 5 5 5 5 5 5 5 5 5 5 5 5 5 5 5 5 5 5 5 5 5 5 5 5 5 5 5 5 5 5 5 5 5 5 5 5 5 5 5 5 5 5 5 5 5 5 5 5 
</DataArray>
<DataArray Name="FiberAngle" format="ascii" type="Float64">
45 45 45 45 45 45 45 45 45 45 45 45 45 45 45 45 45 45 45 45 45 45 45 45 45 45 45 45 45 45 45 45 45 45 45 45 45 45 45 45 45 45 45 45 45 45 45 45 45 45 45 45 45 45 45 45 45 45 45 45 45 45 45 45 45 45 45 45 45 45 45 45 45 45 45 45 45 45 45 45 45 45 45 45 45 45 45 45 45 45 45 45 45 45 45 45 45 45 45 45 
</DataArray>
<DataArray Name="Strain_11" format="ascii" type="Float64">
-2.21426e-08 -2.00811e-08 -1.80117e-08 -1.59444e-08 -1.3877e-08 -2.00724e-08 -1.80115e-08 -1.59395e-08 -1.38678e-08 -1.17971e-08 -1.79902e-08 -1.59263e-08 -1.38586e-08 -1.17875e-08 -9.716e-09 -1.59086e-08 -1.38422e-08 -1.17747e-08 -9.70502e-09 -7.63399e-09 -1.38266e-08 -1.17592e-08 -9.69144e-09 -7.62221e-09 -5.55165e-09 -1.17444e-08 -9.67685e-09 -7.6091e-09 -5.5399e-09 -3.46938e-09 -9.66195e-09 -7.59522e-09 -5.52772e-09 -3.45822e-09 -1.38734e-09 -7.57919e-09 -5.51462e-09 -3.44717e-09 -1.37666e-09 6.9455e-10 -5.49616e-09 -3.43549e-09 -1.36469e-09 7.0627e-10 2.77669e-09 -3.40549e-09 -1.34433e-09 7.24915e-10 2.79232e-09 4.85969e-09 -1.18097e-08 -9.74232e-09 -7.67491e-09 -5.60567e-09 -3.54451e-09 -9.72669e-09 -7.65627e-09 -5.58531e-09 -3.51451e-09 -1.45384e-09 -7.64455e-09 -5.57334e-09 -3.50283e-09 -1.43538e-09 6.29189e-10 -5.56266e-09 -3.49178e-09 -1.42228e-09 6.45219e-10 2.71195e-09 -3.48062e-09 -1.4101e-09 6.59095e-10 2.72685e-09 4.79443e-09 -1.39835e-09 6.7221e-10 2.74144e-09 4.80918e-09 6.87665e-09 6.83987e-10 2.75502e-09 4.82471e-09 6.89219e-09 8.95864e-09 2.766e-09 4.83752e-09 6.90857e-09 8.97631e-09 1.10402e-08 4.84705e-09 6.9178e-09 8.98951e-09 1.10615e-08 1.31224e-08 6.92699e-09 8.99435e-09 1.10617e-08 1.31311e-08 1.51926e-08 
</DataArray>
<DataArray Name="Strain_22" format="ascii" type="Float64">
-1.50341e-08 -1.35912e-08 -1.21924e-08 -1.07902e-08 -9.38869e-09 -1.3614e-08 -1.21876e-08 -1.07806e-08 -9.37998e-09 -7.97938e-09 -1.21999e-08 -1.07851e-08 -9.37564e-09 -7.97219e-09 -6.57095e-09 -1.07883e-08 -9.37887e-09 -7.9706e-09 -6.56568e-09 -5.16311e-09 -9.37858e-09 -7.97118e-09 -6.56389e-09 -5.15863e-09 -3.75532e-09 -7.96998e-09 -6.56288e-09 -5.15577e-09 -3.75055e-09 -2.34725e-09 -6.56253e-09 -5.15401e-09 -3.74622e-09 -2.34139e-09 -9.38763e-10 -5.15684e-09 -3.7439e-09 -2.33501e-09 -9.31405e-10 4.70023e-10 -3.7541e-09 -2.33047e-09 -9.23181e-10 4.77954e-10 1.87881e-09 -2.35734e-09 -9.16124e-10 4.83042e-10 1.88534e-09 3.28697e-09 -7.98697e-09 -6.58534e-09 -5.18304e-09 -3.78388e-09 -2.34266e-09 -6.57881e-09 -5.17795e-09 -3.77682e-09 -2.36953e-09 -9.45897e-10 -5.17002e-09 -3.76859e-09 -2.36499e-09 -9.56105e-10 4.56845e-10 -3.76124e-09 -2.35861e-09 -9.53775e-10 4.54012e-10 1.86253e-09 -2.35275e-09 -9.49445e-10 4.55766e-10 1.86288e-09 3.26998e-09 -9.44677e-10 4.5863e-10 1.86389e-09 3.27118e-09 4.67858e-09 4.63106e-10 1.86568e-09 3.2706e-09 4.67887e-09 6.08835e-09 1.87095e-09 3.27219e-09 4.67564e-09 6.08511e-09 7.49991e-09 3.27938e-09 4.67998e-09 6.0806e-09 7.48762e-09 8.91396e-09 4.68869e-09 6.09025e-09 7.49241e-09 8.89125e-09 1.03341e-08 
</DataArray>
<DataArray Name="Strain_12" format="ascii" type="Float64">
-3.47586e-11 1.14516e-11 1.1627e-11 1.03272e-11 9.38704e-12 -2.53075e-11 -1.12143e-11 8.20841e-12 1.38404e-11 1.53854e-11 -1.07211e-11 -1.19053e-11 -4.16935e-13 8.25425e-12 1.17445e-11 -4.85552e-12 -7.04311e-12 -2.36091e-12 3.19198e-12 6.3768e-12 -1.98914e-12 -3.22603e-12 -1.92276e-12 1.76571e-13 1.74656e-12 4.11183e-14 8.26406e-14 -9.39303e-13 -2.0274e-12 -2.37185e-12 2.77716e-12 4.03569e-12 -7.51122e-14 -4.60258e-12 -6.82593e-12 8.46716e-12 9.45661e-12 -6.39897e-13 -8.5388e-12 -1.17897e-11 2.2521e-11 1.20501e-11 -6.24617e-12 -1.24842e-11 -1.49283e-11 4.04562e-11 -5.84989e-12 -8.64537e-12 -8.94083e-12 -8.98575e-12 8.98575e-12 8.94083e-12 8.64537e-12 5.84989e-12 -4.04562e-11 1.49283e-11 1.24842e-11 6.24617e-12 -1.20501e-11 -2.2521e-11 1.17897e-11 8.5388e-12 6.39897e-13 -9.45661e-12 -8.46716e-12 6.82593e-12 4.60258e-12 7.51122e-14 -4.03569e-12 -2.77716e-12 2.37185e-12 2.0274e-12 9.39303e-13 -8.26406e-14 -4.11183e-14 -1.74656e-12 -1.76571e-13 1.92276e-12 3.22603e-12 1.98914e-12 -6.3768e-12 -3.19198e-12 2.36091e-12 7.04311e-12 4.85552e-12 -1.17445e-11 -8.25425e-12 4.16935e-13 1.19053e-11 1.07211e-11 -1.53854e-11 -1.38404e-11 -8.20841e-12 1.12143e-11 2.53075e-11 -9.38704e-12 -1.03272e-11 -1.1627e-11 -1.14516e-11 3.47586e-11 
</DataArray>
<DataArray Name="Strain_13" format="ascii" type="Float64">
-1.51176e-08 -1.2877e-08 -1.06429e-08 -8.40767e-09 -6.1723e-09 -1.39943e-08 -1.17529e-08 -9.51842e-09 -7.28376e-09 -5.04866e-09 -1.28694e-08 -1.06307e-08 -8.39433e-09 -6.15973e-09 -3.92515e-09 -1.17459e-08 -9.50835e-09 -7.27159e-09 -5.03632e-09 -2.80183e-09 -1.06226e-08 -8.38565e-09 -6.14896e-09 -3.91336e-09 -1.67871e-09 -9.49952e-09 -7.26265e-09 -5.02596e-09 -2.79032e-09 -5.55624e-10 -8.37671e-09 -6.1394e-09 -3.90258e-09 -1.66715e-09 5.67468e-10 -7.25436e-09 -5.01578e-09 -2.7793e-09 -5.44358e-10 1.69044e-09 -6.13246e-09 -3.89266e-09 -1.65745e-09 5.77883e-10 2.81333e-09 -5.01752e-09 -2.77228e-09 -5.35789e-10 1.70072e-09 3.93666e-09 -3.93666e-09 -1.70072e-09 5.35789e-10 2.77228e-09 5.01752e-09 -2.81333e-09 -5.77883e-10 1.65745e-09 3.89266e-09 6.13246e-09 -1.69044e-09 5.44358e-10 2.7793e-09 5.01578e-09 7.25436e-09 -5.67468e-10 1.66715e-09 3.90258e-09 6.1394e-09 8.37671e-09 5.55624e-10 2.79032e-09 5.02596e-09 7.26265e-09 9.49952e-09 1.67871e-09 3.91336e-09 6.14896e-09 8.38565e-09 1.06226e-08 2.80183e-09 5.03632e-09 7.27159e-09 9.50835e-09 1.17459e-08 3.92515e-09 6.15973e-09 8.39433e-09 1.06307e-08 1.28694e-08 5.04866e-09 7.28376e-09 9.51842e-09 1.17529e-08 1.39943e-08 6.1723e-09 8.40767e-09 1.06429e-08 1.2877e-08 1.51176e-08 
</DataArray>
<DataArray Name="Strain_23" format="ascii" type="Float64">
-5.05524e-09 -3.93212e-09 -2.80723e-09 -1.6835e-09 -5.59832e-10 -5.05605e-09 -3.93175e-09 -2.80798e-09 -1.68329e-09 -5.59396e-10 -5.05361e-09 -3.93078e-09 -2.80823e-09 -1.6848e-09 -5.61153e-10 -5.05328e-09 -3.93027e-09 -2.80776e-09 -1.68504e-09 -5.6196e-10 -5.05347e-09 -3.93045e-09 -2.80762e-09 -1.68476e-09 -5.61772e-10 -5.05385e-09 -3.93082e-09 -2.80765e-09 -1.68446e-09 -5.61315e-10 -5.05411e-09 -3.9311e-09 -2.80765e-09 -1.68429e-09 -5.61165e-10 -5.05377e-09 -3.93081e-09 -2.80735e-09 -1.68464e-09 -5.62006e-10 -5.05129e-09 -3.92923e-09 -2.80773e-09 -1.68636e-09 -5.63851e-10 -5.04451e-09 -3.93124e-09 -2.8107e-09 -1.68757e-09 -5.63902e-10 5.63902e-10 1.68757e-09 2.8107e-09 3.93124e-09 5.04451e-09 5.63851e-10 1.68636e-09 2.80773e-09 3.92923e-09 5.05129e-09 5.62006e-10 1.68464e-09 2.80735e-09 3.93081e-09 5.05377e-09 5.61165e-10 1.68429e-09 2.80765e-09 3.9311e-09 5.05411e-09 5.61315e-10 1.68446e-09 2.80765e-09 3.93082e-09 5.05385e-09 5.61772e-10 1.68476e-09 2.80762e-09 3.93045e-09 5.05347e-09 5.6196e-10 1.68504e-09 2.80776e-09 3.93027e-09 5.05328e-09 5.61153e-10 1.6848e-09 2.80823e-09 3.93078e-09 5.05361e-09 5.59396e-10 1.68329e-09 2.80798e-09 3.93175e-09 5.05605e-09 5.59832e-10 1.6835e-09 2.80723e-09 3.93212e-09 5.05524e-09 
</DataArray>
<DataArray Name="Strain_33" format="ascii" type="Float64">
1 1 1 1 1 1 1 1 1 1 1 1 1 1 1 1 1 1 1 1 1 1 1 1 1 1 1 1 1 1 1 1 1 1 1 1 1 1 1 1 1 1 1 1 1 1 1 1 1 1 1 1 1 1 1 1 1 1 1 1 1 1 1 1 1 1 1 1 1 1 1 1 1 1 1 1 1 1 1 1 1 1 1 1 1 1 1 1 1 1 1 1 1 1 1 1 1 1 1 1 
</DataArray>
<DataArray Name="Stress_11" format="ascii" type="Float64">
1.23173e+10 1.23173e+10 1.23173e+10 1.23173e+10 1.23173e+10 1.23173e+10 1.23173e+10 1.23173e+10 1.23173e+10 1.23173e+10 1.23173e+10 1.23173e+10 1.23173e+10 1.23173e+10 1.23173e+10 1.23173e+10 1.23173e+10 1.23173e+10 1.23173e+10 1.23173e+10 1.23173e+10 1.23173e+10 1.23173e+10 1.23173e+10 1.23173e+10 1.23173e+10 1.23173e+10 1.23173e+10 1.23173e+10 1.23173e+10 1.23173e+10 1.23173e+10 1.23173e+10 1.23173e+10 1.23173e+10 1.23173e+10 1.23173e+10 1.23173e+10 1.23173e+10 1.23173e+10 1.23173e+10 1.23173e+10 1.23173e+10 1.23173e+10 1.23173e+10 1.23173e+10 1.23173e+10 1.23173e+10 1.23173e+10 1.23173e+10 1.23173e+10 1.23173e+10 1.23173e+10 1.23173e+10 1.23173e+10 1.23173e+10 1.23173e+10 1.23173e+10 1.23173e+10 1.23173e+10 1.23173e+10 1.23173e+10 1.23173e+10 1.23173e+10 1.23173e+10 1.23173e+10 1.23173e+10 1.23173e+10 1.23173e+10 1.23173e+10 1.23173e+10 1.23173e+10 1.23173e+10 1.23173e+10 1.23173e+10 1.23173e+10 1.23173e+10 1.23173e+10 1.23173e+10 1.23173e+10 1.23173e+10 1.23173e+10 1.23173e+10 1.23173e+10 1.23173e+10 1.23173e+10 1.23173e+10 1.23173e+10 1.23173e+10 1.23173e+10 1.23173e+10 1.23173e+10 1.23173e+10 1.23173e+10 1.23173e+10 1.23173e+10 1.23173e+10 1.23173e+10 1.23173e+10 1.23173e+10 
</DataArray>
<DataArray Name="Stress_22" format="ascii" type="Float64">
5.16864e+09 5.16864e+09 5.16864e+09 5.16864e+09 5.16864e+09 5.16864e+09 5.16864e+09 5.16864e+09 5.16864e+09 5.16864e+09 5.16864e+09 5.16864e+09 5.16864e+09 5.16864e+09 5.16864e+09 5.16864e+09 5.16864e+09 5.16864e+09 5.16864e+09 5.16864e+09 5.16864e+09 5.16864e+09 5.16864e+09 5.16864e+09 5.16864e+09 5.16864e+09 5.16864e+09 5.16864e+09 5.16864e+09 5.16864e+09 5.16864e+09 5.16864e+09 5.16864e+09 5.16864e+09 5.16864e+09 5.16864e+09 5.16864e+09 5.16864e+09 5.16864e+09 5.16864e+09 5.16864e+09 5.16864e+09 5.16864e+09 5.16864e+09 5.16864e+09 5.16864e+09 5.16864e+09 5.16864e+09 5.16864e+09 5.16864e+09 5.16864e+09 5.16864e+09 5.16864e+09 5.16864e+09 5.16864e+09 5.16864e+09 5.16864e+09 5.16864e+09 5.16864e+09 5.16864e+09 5.16864e+09 5.16864e+09 5.16864e+09 5.16864e+09 5.16864e+09 5.16864e+09 5.16864e+09 5.16864e+09 5.16864e+09 5.16864e+09 5.16864e+09 5.16864e+09 5.16864e+09 5.16864e+09 5.16864e+09 5.16864e+09 5.16864e+09 5.16864e+09 5.16864e+09 5.16864e+09 5.16864e+09 5.16864e+09 5.16864e+09 5.16864e+09 5.16864e+09 5.16864e+09 5.16864e+09 5.16864e+09 5.16864e+09 5.16864e+09 5.16864e+09 5.16864e+09 5.16864e+09 5.16864e+09 5.16864e+09 5.16864e+09 5.16864e+09 5.16864e+09 5.16864e+09 5.16864e+09 
</DataArray>
<DataArray Name="Stress_12" format="ascii" type="Float64">
-1.21593 -0.80009 -0.558137 -0.322018 -0.0845492 -1.18032 -0.885812 -0.571239 -0.308672 -0.0617489 -1.12458 -0.88822 -0.603943 -0.330143 -0.0759087 -1.10231 -0.869704 -0.611203 -0.349358 -0.096401 -1.0915 -0.855294 -0.609513 -0.360714 -0.113888 -1.08389 -0.842847 -0.605796 -0.36899 -0.129381 -1.07359 -0.827943 -0.602524 -0.378703 -0.146209 -1.05198 -0.807361 -0.6046 -0.393678 -0.16518 -0.998249 -0.797205 -0.625902 -0.408982 -0.177457 -0.9289 -0.865397 -0.635623 -0.395829 -0.154973 0.154973 0.395829 0.635623 0.865397 0.9289 0.177457 0.408982 0.625902 0.797205 0.998249 0.16518 0.393678 0.6046 0.807361 1.05198 0.146209 0.378703 0.602524 0.827943 1.07359 0.129381 0.36899 0.605796 0.842847 1.08389 0.113888 0.360714 0.609513 0.855294 1.0915 0.096401 0.349358 0.611203 0.869704 1.10231 0.0759087 0.330143 0.603943 0.88822 1.12458 0.0617489 0.308672 0.571239 0.885812 1.18032 0.0845492 0.322018 0.558137 0.80009 1.21593 
</DataArray>
<DataArray Name="Stress_13" format="ascii" type="Float64">
7.57719e+09 7.57719e+09 7.57719e+09 7.57719e+09 7.57719e+09 7.57719e+09 7.57719e+09 7.57719e+09 7.57719e+09 7.57719e+09 7.57719e+09 7.57719e+09 7.57719e+09 7.57719e+09 7.57719e+09 7.57719e+09 7.57719e+09 7.57719e+09 7.57719e+09 7.57719e+09 7.57719e+09 7.57719e+09 7.57719e+09 7.57719e+09 7.57719e+09 7.57719e+09 7.57719e+09 7.57719e+09 7.57719e+09 7.57719e+09 7.57719e+09 7.57719e+09 7.57719e+09 7.57719e+09 7.57719e+09 7.57719e+09 7.57719e+09 7.57719e+09 7.57719e+09 7.57719e+09 7.57719e+09 7.57719e+09 7.57719e+09 7.57719e+09 7.57719e+09 7.57719e+09 7.57719e+09 7.57719e+09 7.57719e+09 7.57719e+09 7.57719e+09 7.57719e+09 7.57719e+09 7.57719e+09 7.57719e+09 7.57719e+09 7.57719e+09 7.57719e+09 7.57719e+09 7.57719e+09 7.57719e+09 7.57719e+09 7.57719e+09 7.57719e+09 7.57719e+09 7.57719e+09 7.57719e+09 7.57719e+09 7.57719e+09 7.57719e+09 7.57719e+09 7.57719e+09 7.57719e+09 7.57719e+09 7.57719e+09 7.57719e+09 7.57719e+09 7.57719e+09 7.57719e+09 7.57719e+09 7.57719e+09 7.57719e+09 7.57719e+09 7.57719e+09 7.57719e+09 7.57719e+09 7.57719e+09 7.57719e+09 7.57719e+09 7.57719e+09 7.57719e+09 7.57719e+09 7.57719e+09 7.57719e+09 7.57719e+09 7.57719e+09 7.57719e+09 7.57719e+09 7.57719e+09 7.57719e+09 
</DataArray>
<DataArray Name="Stress_23" format="ascii" type="Float64">
-19.144 -14.8826 -10.6243 -6.37069 -2.11723 -19.1451 -14.886 -10.6279 -6.36911 -2.11429 -19.1328 -14.8825 -10.6306 -6.37605 -2.12173 -19.1302 -14.8795 -10.6293 -6.37803 -2.12593 -19.1303 -14.8794 -10.6287 -6.37764 -2.12621 -19.1313 -14.8801 -10.6285 -6.37694 -2.12537 -19.1318 -14.8803 -10.6284 -6.37686 -2.12575 -19.1292 -14.878 -10.6274 -6.37903 -2.13 -19.1168 -14.8715 -10.63 -6.38638 -2.13766 -19.0873 -14.883 -10.6418 -6.39021 -2.13658 2.13658 6.39021 10.6418 14.883 19.0873 2.13766 6.38638 10.63 14.8715 19.1168 2.13 6.37903 10.6274 14.878 19.1292 2.12575 6.37686 10.6284 14.8803 19.1318 2.12537 6.37694 10.6285 14.8801 19.1313 2.12621 6.37764 10.6287 14.8794 19.1303 2.12593 6.37803 10.6293 14.8795 19.1302 2.12173 6.37605 10.6306 14.8825 19.1328 2.11429 6.36911 10.6279 14.886 19.1451 2.11723 6.37069 10.6243 14.8826 19.144 
</DataArray>
<DataArray Name="Stress_33" format="ascii" type="Float64">
2.03173e+10 2.03173e+10 2.03173e+10 2.03173e+10 2.03173e+10 2.03173e+10 2.03173e+10 2.03173e+10 2.03173e+10 2.03173e+10 2.03173e+10 2.03173e+10 2.03173e+10 2.03173e+10 2.03173e+10 2.03173e+10 2.03173e+10 2.03173e+10 2.03173e+10 2.03173e+10 2.03173e+10 2.03173e+10 2.03173e+10 2.03173e+10 2.03173e+10 2.03173e+10 2.03173e+10 2.03173e+10 2.03173e+10 2.03173e+10 2.03173e+10 2.03173e+10 2.03173e+10 2.03173e+10 2.03173e+10 2.03173e+10 2.03173e+10 2.03173e+10 2.03173e+10 2.03173e+10 2.03173e+10 2.03173e+10 2.03173e+10 2.03173e+10 2.03173e+10 2.03173e+10 2.03173e+10 2.03173e+10 2.03173e+10 2.03173e+10 2.03173e+10 2.03173e+10 2.03173e+10 2.03173e+10 2.03173e+10 2.03173e+10 2.03173e+10 2.03173e+10 2.03173e+10 2.03173e+10 2.03173e+10 2.03173e+10 2.03173e+10 2.03173e+10 2.03173e+10 2.03173e+10 2.03173e+10 2.03173e+10 2.03173e+10 2.03173e+10 2.03173e+10 2.03173e+10 2.03173e+10 2.03173e+10 2.03173e+10 2.03173e+10 2.03173e+10 2.03173e+10 2.03173e+10 2.03173e+10 2.03173e+10 2.03173e+10 2.03173e+10 2.03173e+10 2.03173e+10 2.03173e+10 2.03173e+10 2.03173e+10 2.03173e+10 2.03173e+10 2.03173e+10 2.03173e+10 2.03173e+10 2.03173e+10 2.03173e+10 2.03173e+10 2.03173e+10 2.03173e+10 2.03173e+10 2.03173e+10 
</DataArray>
</CellData>
<Points>
<DataArray NumberOfComponents="3" format="ascii" type="Float64">
0 0 0 0 0.05 0 0 0.01 0 0 0.02 0 0 0.03 0 0 0.04 0 0.05 0.05 0 0.01 0.05 0 0.02 0.05 0 0.03 0.05 0 0.04 0.05 0 0.05 0 0 0.05 0.04 0 0.05 0.03 0 0.05 0.02 0 0.05 0.01 0 0.04 0 0 0.03 0 0 0.02 0 0 0.01 0 0 0.01 0.01 0 0.01 0.02 0 0.01 0.03 0 0.01 0.04 0 0.02 0.01 0 0.02 0.02 0 0.02 0.03 0 0.02 0.04 0 0.03 0.01 0 0.03 0.02 0 0.03 0.03 0 0.03 0.04 0 0.04 0.01 0 0.04 0.02 0 0.04 0.03 0 0.04 0.04 0 0 0.1 0 0 0.06 0 0 0.07 0 0 0.08 0 0 0.09 0 0.05 0.1 0 0.01 0.1 0 0.02 0.1 0 0.03 0.1 0 0.04 0.1 0 0.05 0.09 0 0.05 0.08 0 0.05 0.07 0 0.05 0.06 0 0.01 0.06 0 0.01 0.07 0 0.01 0.08 0 0.01 0.09 0 0.02 0.06 0 0.02 0.07 0 0.02 0.08 0 0.02 0.09 0 0.03 0.06 0 0.03 0.07 0 0.03 0.08 0 0.03 0.09 0 0.04 0.06 0 0.04 0.07 0 0.04 0.08 0 0.04 0.09 0 0.1 0.05 0 0.06 0.05 0 0.07 0.05 0 0.08 0.05 0 0.09 0.05 0 0.1 0 0 0.1 0.04 0 0.1 0.03 0 0.1 0.02 0 0.1 0.01 0 0.09 0 0 0.08 0 0 0.07 0 0 0.06 0 0 0.06 0.01 0 0.06 0.02 0 0.06 0.03 0 0.06 0.04 0 0.07 0.01 0 0.07 0.02 0 0.07 0.03 0 0.07 0.04 0 0.08 0.01 0 0.08 0.02 0 0.08 0.03 0 0.08 0.04 0 0.09 0.01 0 0.09 0.02 0 0.09 0.03 0 0.09 0.04 0 0.1 0.1 0 0.06 0.1 0 0.07 0.1 0 0.08 0.1 0 0.09 0.1 0 0.1 0.09 0 0.1 0.08 0 0.1 0.07 0 0.1 0.06 0 0.06 0.06 0 0.06 0.07 0 0.06 0.08 0 0.06 0.09 0 0.07 0.06 0 0.07 0.07 0 0.07 0.08 0 0.07 0.09 0 0.08 0.06 0 0.08 0.07 0 0.08 0.08 0 0.08 0.09 0 0.09 0.06 0 0.09 0.07 0 0.09 0.08 0 0.09 0.09 0 
</DataArray>
</Points>
<Cells>
<DataArray Name="connectivity" format="ascii" type="Int64">
0 19 20 2 19 18 24 20 18 17 28 24 17 16 32 28 16 11 15 32 2 20 21 3 20 24 25 21 24 28 29 25 28 32 33 29 32 15 14 33 3 21 22 4 21 25 26 22 25 29 30 26 29 33 34 30 33 14 13 34 4 22 23 5 22 26 27 23 26 30 31 27 30 34 35 31 34 13 12 35 5 23 7 1 23 27 8 7 27 31 9 8 31 35 10 9 35 12 6 10 1 7 50 37 7 8 54 50 8 9 58 54 9 10 62 58 10 6 49 62 37 50 51 38 50 54 55 51 54 58 59 55 58 62 63 59 62 49 48 63 38 51 52 39 51 55 56 52 55 59 60 56 59 63 64 60 63 48 47 64 39 52 53 40 52 56 57 53 56 60 61 57 60 64 65 61 64 47 46 65 40 53 42 36 53 57 43 42 57 61 44 43 61 65 45 44 65 46 41 45 11 79 80 15 79 78 84 80 78 77 88 84 77 76 92 88 76 71 75 92 15 80 81 14 80 84 85 81 84 88 89 85 88 92 93 89 92 75 74 93 14 81 82 13 81 85 86 82 85 89 90 86 89 93 94 90 93 74 73 94 13 82 83 12 82 86 87 83 86 90 91 87 90 94 95 91 94 73 72 95 12 83 67 6 83 87 68 67 87 91 69 68 91 95 70 69 95 72 66 70 6 67 105 49 67 68 109 105 68 69 113 109 69 70 117 113 70 66 104 117 49 105 106 48 105 109 110 106 109 113 114 110 113 117 118 114 117 104 103 118 48 106 107 47 106 110 111 107 110 114 115 111 114 118 119 115 118 103 102 119 47 107 108 46 107 111 112 108 111 115 116 112 115 119 120 116 119 102 101 120 46 108 97 41 108 112 98 97 112 116 99 98 116 120 100 99 120 101 96 100 
</DataArray>
<DataArray Name="offsets" format="ascii" type="Int64">
4 8 12 16 20 24 28 32 36 40 44 48 52 56 60 64 68 72 76 80 84 88 92 96 100 104 108 112 116 120 124 128 132 136 140 144 148 152 156 160 164 168 172 176 180 184 188 192 196 200 204 208 212 216 220 224 228 232 236 240 244 248 252 256 260 264 268 272 276 280 284 288 292 296 300 304 308 312 316 320 324 328 332 336 340 344 348 352 356 360 364 368 372 376 380 384 388 392 396 400 
</DataArray>
<DataArray Name="types" format="ascii" type="Int8">
9 9 9 9 9 9 9 9 9 9 9 9 9 9 9 9 9 9 9 9 9 9 9 9 9 9 9 9 9 9 9 9 9 9 9 9 9 9 9 9 9 9 9 9 9 9 9 9 9 9 9 9 9 9 9 9 9 9 9 9 9 9 9 9 9 9 9 9 9 9 9 9 9 9 9 9 9 9 9 9 9 9 9 9 9 9 9 9 9 9 9 9 9 9 9 9 9 9 9 9 
</DataArray>
</Cells>
</Piece>
</UnstructuredGrid>
</VTKFile>
