<?xml version="1.0"?>
<VTKFile byte_order="LittleEndian" type="UnstructuredGrid" version="0.1">
<UnstructuredGrid>
<Piece NumberOfCells="100" NumberOfPoints="121">
<PointData>
<DataArray Name="Warping_X" format="ascii" type="Float64">
-3.4644e-10 4.39721e-26 -2.36114e-10 -1.46178e-10 -8.1139e-11 -3.54124e-11 -3.25057e-26 -1.89726e-26 2.22646e-26 -2.48683e-26 -1.06822e-26 6.18912e-11 1.52817e-11 2.98567e-11 4.32737e-11 5.49734e-11 -3.55348e-11 -1.34974e-10 -2.29026e-10 -3.07331e-10 -2.16119e-10 -1.32974e-10 -7.258e-11 -3.11731e-11 -1.67619e-10 -1.04782e-10 -5.68234e-11 -2.40965e-11 -9.93459e-11 -6.21903e-11 -3.27663e-11 -1.33351e-11 -2.23725e-11 -1.05751e-11 -2.5537e-12 3.77576e-13 3.4644e-10 3.54124e-11 8.1139e-11 1.46178e-10 2.36114e-10 -6.18912e-11 3.07331e-10 2.29026e-10 1.34974e-10 3.55348e-11 -5.49734e-11 -4.32737e-11 -2.98567e-11 -1.52817e-11 3.11731e-11 7.258e-11 1.32974e-10 2.16119e-10 2.40965e-11 5.68234e-11 1.04782e-10 1.67619e-10 1.33351e-11 3.27663e-11 6.21903e-11 9.93459e-11 -3.77576e-13 2.5537e-12 1.05751e-11 2.23725e-11 -3.80357e-25 -7.94523e-26 -1.29595e-25 -2.26269e-25 -2.96579e-25 2.95006e-10 4.28676e-11 9.20619e-11 1.51934e-10 2.22234e-10 3.07251e-10 2.79615e-10 2.25265e-10 1.50807e-10 1.25878e-10 9.30386e-11 6.0012e-11 2.91969e-11 1.84215e-10 1.32976e-10 8.37411e-11 4.00236e-11 2.23877e-10 1.57907e-10 9.7706e-11 4.61489e-11 2.38045e-10 1.64274e-10 1.00169e-10 4.68606e-11 -2.95006e-10 -1.50807e-10 -2.25265e-10 -2.79615e-10 -3.07251e-10 -2.22234e-10 -1.51934e-10 -9.20619e-11 -4.28676e-11 -2.91969e-11 -6.0012e-11 -9.30386e-11 -1.25878e-10 -4.00236e-11 -8.37411e-11 -1.32976e-10 -1.84215e-10 -4.61489e-11 -9.7706e-11 -1.57907e-10 -2.23877e-10 -4.68606e-11 -1.00169e-10 -1.64274e-10 -2.38045e-10 
</DataArray>
<DataArray Name="Warping_Y" format="ascii" type="Float64">
2.26206e-10 1.58213e-10 2.11594e-10 1.94648e-10 1.76429e-10 1.63062e-10 -1.60464e-10 6.20705e-11 -2.79597e-11 -9.8621e-11 -1.43413e-10 -8.75748e-12 -1.55756e-10 -1.40591e-10 -1.12349e-10 -6.84625e-11 -2.39313e-12 2.11471e-11 6.32523e-11 1.2632e-10 1.00977e-10 8.41787e-11 7.2245e-11 6.46823e-11 2.19324e-11 -3.49116e-12 -1.8029e-11 -2.55999e-11 -2.99663e-11 -6.47584e-11 -8.51775e-11 -9.54991e-11 -5.94977e-11 -1.0048e-10 -1.26009e-10 -1.39336e-10 2.26206e-10 1.63062e-10 1.76429e-10 1.94648e-10 2.11594e-10 -8.75748e-12 1.2632e-10 6.32523e-11 2.11471e-11 -2.39313e-12 -6.84625e-11 -1.12349e-10 -1.40591e-10 -1.55756e-10 6.46823e-11 7.2245e-11 8.41787e-11 1.00977e-10 -2.55999e-11 -1.8029e-11 -3.49116e-12 2.19324e-11 -9.54991e-11 -8.51775e-11 -6.47584e-11 -2.99663e-11 -1.39336e-10 -1.26009e-10 -1.0048e-10 -5.94977e-11 4.80178e-11 -1.50883e-10 -1.17939e-10 -6.71582e-11 -7.26858e-12 1.72569e-10 5.49818e-11 7.46288e-11 1.03345e-10 1.36099e-10 1.0711e-10 6.03468e-11 2.4476e-11 8.07907e-13 -5.8536e-11 -1.02232e-10 -1.30607e-10 -1.46042e-10 -3.17265e-11 -7.24979e-11 -9.88462e-11 -1.13342e-10 9.84937e-12 -2.581e-11 -4.93579e-11 -6.27919e-11 6.59195e-11 3.45833e-11 1.17101e-11 -2.45465e-12 1.72569e-10 8.07907e-13 2.4476e-11 6.03468e-11 1.0711e-10 1.36099e-10 1.03345e-10 7.46288e-11 5.49818e-11 -1.46042e-10 -1.30607e-10 -1.02232e-10 -5.8536e-11 -1.13342e-10 -9.88462e-11 -7.24979e-11 -3.17265e-11 -6.27919e-11 -4.93579e-11 -2.581e-11 9.84937e-12 -2.45465e-12 1.17101e-11 3.45833e-11 6.59195e-11 
</DataArray>
<DataArray Name="Warping_Z" format="ascii" type="Float64">
0 0 0 0 0 0 0 0 0 0 0 0 0 0 0 0 0 0 0 0 0 0 0 0 0 0 0 0 0 0 0 0 0 0 0 0 0 0 0 0 0 0 0 0 0 0 0 0 0 0 0 0 0 0 0 0 0 0 0 0 0 0 0 0 0 0 0 0 0 0 0 0 0 0 0 0 0 0 0 0 0 0 0 0 0 0 0 0 0 0 0 0 0 0 0 0 0 0 0 0 0 0 0 0 0 0 0 0 0 0 0 0 0 0 0 0 0 0 0 0 0 
</DataArray>
</PointData>
<CellData>
<DataArray Name="MaterialId" format="ascii" type="Float64">
5 5 5 5 5 5 5 5 5 5 5 5 5 5 5 5 5 5 5 5 5 5 5 5 5 5 5 5 5 5 5 5 5 5 5 5 5 5 5 5 5 5 5 5 5 5 5 5 5 5 5 5 5 5 5 5 5 5 5 5 5 5 5 5 5 5 5 5 5 5 5 5 5 5 5 5 5 5 5 5 5 5 5 5 5 5 5 5 5 5 5 5 5 5 5 5 5 5 5 5 
</DataArray>
<DataArray Name="FiberAngle" format="ascii" type="Float64">
45 45 45 45 45 45 45 45 45 45 45 45 45 45 45 45 45 45 45 45 45 45 45 45 45 45 45 45 45 45 45 45 45 45 45 45 45 45 45 45 45 45 45 45 45 45 45 45 45 45 45 45 45 45 45 45 45 45 45 45 45 45 45 45 45 45 45 45 45 45 45 45 45 45 45 45 45 45 45 45 45 45 45 45 45 45 45 45 45 45 45 45 45 45 45 45 45 45 45 45 
</DataArray>
<DataArray Name="Strain_11" format="ascii" type="Float64">
2.95519e-09 6.34025e-09 8.11623e-09 8.82064e-09 8.7386e-09 1.65992e-09 3.83461e-09 5.54324e-09 6.42943e-09 6.55974e-09 1.08811e-09 2.19745e-09 3.33244e-09 4.09139e-09 4.31296e-09 6.39918e-10 1.14166e-09 1.74093e-09 2.19626e-09 2.36572e-09 2.11966e-10 3.53827e-10 5.38074e-10 6.85633e-10 7.45205e-10 -2.11966e-10 -3.53827e-10 -5.38074e-10 -6.85633e-10 -7.45205e-10 -6.39918e-10 -1.14166e-09 -1.74093e-09 -2.19626e-09 -2.36572e-09 -1.08811e-09 -2.19745e-09 -3.33244e-09 -4.09139e-09 -4.31296e-09 -1.65992e-09 -3.83461e-09 -5.54324e-09 -6.42943e-09 -6.55974e-09 -2.95519e-09 -6.34025e-09 -8.11623e-09 -8.82064e-09 -8.7386e-09 7.99101e-09 6.63974e-09 4.70063e-09 2.0902e-09 -1.40279e-09 6.03348e-09 4.91368e-09 3.2297e-09 1.02672e-09 -1.4075e-09 3.99601e-09 3.1833e-09 1.94482e-09 4.41462e-10 -1.0223e-09 2.20353e-09 1.72779e-09 1.00451e-09 1.58718e-10 -6.04991e-10 6.95761e-10 5.41337e-10 3.06262e-10 3.55879e-11 -1.99653e-10 -6.95761e-10 -5.41337e-10 -3.06262e-10 -3.55879e-11 1.99653e-10 -2.20353e-09 -1.72779e-09 -1.00451e-09 -1.58718e-10 6.04991e-10 -3.99601e-09 -3.1833e-09 -1.94482e-09 -4.41462e-10 1.0223e-09 -6.03348e-09 -4.91368e-09 -3.2297e-09 -1.02672e-09 1.4075e-09 -7.99101e-09 -6.63974e-09 -4.70063e-09 -2.0902e-09 1.40279e-09 
</DataArray>
<DataArray Name="Strain_22" format="ascii" type="Float64">
-1.99771e-09 -3.33312e-09 -4.62167e-09 -5.4109e-09 -5.84048e-09 -1.68725e-09 -2.11112e-09 -3.01078e-09 -3.7887e-09 -4.2434e-09 -1.50763e-09 -1.32357e-09 -1.74784e-09 -2.29744e-09 -2.68862e-09 -1.04646e-09 -7.56682e-10 -8.94629e-10 -1.18242e-09 -1.42458e-09 -3.7303e-10 -2.4858e-10 -2.74084e-10 -3.59942e-10 -4.39266e-10 3.7303e-10 2.4858e-10 2.74084e-10 3.59942e-10 4.39266e-10 1.04646e-09 7.56682e-10 8.94629e-10 1.18242e-09 1.42458e-09 1.50763e-09 1.32357e-09 1.74784e-09 2.29744e-09 2.68862e-09 1.68725e-09 2.11112e-09 3.01078e-09 3.7887e-09 4.2434e-09 1.99771e-09 3.33312e-09 4.62167e-09 5.4109e-09 5.84048e-09 -5.95245e-09 -5.77732e-09 -5.335e-09 -4.58439e-09 -3.88302e-09 -4.3791e-09 -4.22337e-09 -3.82154e-09 -3.34978e-09 -3.20449e-09 -2.83089e-09 -2.73616e-09 -2.49481e-09 -2.32105e-09 -2.57949e-09 -1.52998e-09 -1.49652e-09 -1.39647e-09 -1.37993e-09 -1.69059e-09 -4.77493e-10 -4.71964e-10 -4.48209e-10 -4.59013e-10 -5.88895e-10 4.77493e-10 4.71964e-10 4.48209e-10 4.59013e-10 5.88895e-10 1.52998e-09 1.49652e-09 1.39647e-09 1.37993e-09 1.69059e-09 2.83089e-09 2.73616e-09 2.49481e-09 2.32105e-09 2.57949e-09 4.3791e-09 4.22337e-09 3.82154e-09 3.34978e-09 3.20449e-09 5.95245e-09 5.77732e-09 5.335e-09 4.58439e-09 3.88302e-09 
</DataArray>
<DataArray Name="Strain_12" format="ascii" type="Float64">
-4.48223e-10 5.25298e-10 1.5155e-10 -2.14053e-10 -4.54228e-10 -2.40023e-09 -1.03667e-09 -6.58664e-10 -8.14975e-10 -1.03679e-09 -4.46099e-09 -3.47954e-09 -2.55166e-09 -1.95538e-09 -1.59233e-09 -5.77151e-09 -5.32112e-09 -4.24448e-09 -3.11532e-09 -2.13228e-09 -6.39686e-09 -6.25214e-09 -5.15644e-09 -3.78357e-09 -2.45653e-09 -6.39686e-09 -6.25214e-09 -5.15644e-09 -3.78357e-09 -2.45653e-09 -5.77151e-09 -5.32112e-09 -4.24448e-09 -3.11532e-09 -2.13228e-09 -4.46099e-09 -3.47954e-09 -2.55166e-09 -1.95538e-09 -1.59233e-09 -2.40023e-09 -1.03667e-09 -6.58664e-10 -8.14975e-10 -1.03679e-09 -4.48223e-10 5.25298e-10 1.5155e-10 -2.14053e-10 -4.54228e-10 -6.17712e-10 -7.7503e-10 -9.67021e-10 -1.1055e-09 -3.16993e-10 -1.22481e-09 -1.37677e-09 -1.4473e-09 -1.16391e-09 -2.56504e-10 -1.31714e-09 -1.03831e-09 -6.62964e-10 -1.42229e-10 3.85153e-10 -1.28458e-09 -5.03574e-10 2.38166e-10 8.27003e-10 8.92636e-10 -1.25917e-09 -1.78813e-10 7.57924e-10 1.36087e-09 1.14973e-09 -1.25917e-09 -1.78813e-10 7.57924e-10 1.36087e-09 1.14973e-09 -1.28458e-09 -5.03574e-10 2.38166e-10 8.27003e-10 8.92636e-10 -1.31714e-09 -1.03831e-09 -6.62964e-10 -1.42229e-10 3.85153e-10 -1.22481e-09 -1.37677e-09 -1.4473e-09 -1.16391e-09 -2.56504e-10 -6.17712e-10 -7.7503e-10 -9.67021e-10 -1.1055e-09 -3.16993e-10 
</DataArray>
<DataArray Name="Strain_13" format="ascii" type="Float64">
2.37388e-08 1.29995e-08 6.61768e-09 3.14938e-09 1.88279e-09 2.09338e-08 1.46788e-08 9.81394e-09 6.77687e-09 5.41383e-09 1.53751e-08 1.19846e-08 9.01123e-09 6.91156e-09 5.84902e-09 9.36097e-09 7.64563e-09 6.06981e-09 4.89025e-09 4.24762e-09 3.13709e-09 2.61522e-09 2.12303e-09 1.74545e-09 1.53308e-09 -3.13709e-09 -2.61522e-09 -2.12303e-09 -1.74545e-09 -1.53308e-09 -9.36097e-09 -7.64563e-09 -6.06981e-09 -4.89025e-09 -4.24762e-09 -1.53751e-08 -1.19846e-08 -9.01123e-09 -6.91156e-09 -5.84902e-09 -2.09338e-08 -1.46788e-08 -9.81394e-09 -6.77687e-09 -5.41383e-09 -2.37388e-08 -1.29995e-08 -6.61768e-09 -3.14938e-09 -1.88279e-09 2.45152e-09 4.67036e-09 8.50276e-09 1.41228e-08 2.2084e-08 5.54068e-09 7.02592e-09 9.79075e-09 1.37573e-08 1.85461e-08 5.8052e-09 6.7089e-09 8.4569e-09 1.08496e-08 1.35241e-08 4.17825e-09 4.65171e-09 5.58803e-09 6.84572e-09 8.20367e-09 1.50374e-09 1.64958e-09 1.9424e-09 2.33307e-09 2.74611e-09 -1.50374e-09 -1.64958e-09 -1.9424e-09 -2.33307e-09 -2.74611e-09 -4.17825e-09 -4.65171e-09 -5.58803e-09 -6.84572e-09 -8.20367e-09 -5.8052e-09 -6.7089e-09 -8.4569e-09 -1.08496e-08 -1.35241e-08 -5.54068e-09 -7.02592e-09 -9.79075e-09 -1.37573e-08 -1.85461e-08 -2.45152e-09 -4.67036e-09 -8.50276e-09 -1.41228e-08 -2.2084e-08 
</DataArray>
<DataArray Name="Strain_23" format="ascii" type="Float64">
1 1 1 1 1 1 1 1 1 1 1 1 1 1 1 1 1 1 1 1 1 1 1 1 1 1 1 1 1 1 1 1 1 1 1 1 1 1 1 1 1 1 1 1 1 1 1 1 1 1 1 1 1 1 1 1 1 1 1 1 1 1 1 1 1 1 1 1 1 1 1 1 1 1 1 1 1 1 1 1 1 1 1 1 1 1 1 1 1 1 1 1 1 1 1 1 1 1 1 1 
</DataArray>
<DataArray Name="Strain_33" format="ascii" type="Float64">
-4.54793e-09 -3.53769e-09 -2.52709e-09 -1.51632e-09 -5.05448e-10 -3.53758e-09 -2.75147e-09 -1.96541e-09 -1.17928e-09 -3.93099e-10 -2.52684e-09 -1.96534e-09 -1.40385e-09 -8.42327e-10 -2.80779e-10 -1.5161e-09 -1.1792e-09 -8.42297e-10 -5.05388e-10 -1.68465e-10 -5.05366e-10 -3.93063e-10 -2.80763e-10 -1.68461e-10 -5.61543e-11 5.05366e-10 3.93063e-10 2.80763e-10 1.68461e-10 5.61543e-11 1.5161e-09 1.1792e-09 8.42297e-10 5.05388e-10 1.68465e-10 2.52684e-09 1.96534e-09 1.40385e-09 8.42327e-10 2.80779e-10 3.53758e-09 2.75147e-09 1.96541e-09 1.17928e-09 3.93099e-10 4.54793e-09 3.53769e-09 2.52709e-09 1.51632e-09 5.05448e-10 5.05448e-10 1.51632e-09 2.52709e-09 3.53769e-09 4.54793e-09 3.93099e-10 1.17928e-09 1.96541e-09 2.75147e-09 3.53758e-09 2.80779e-10 8.42327e-10 1.40385e-09 1.96534e-09 2.52684e-09 1.68465e-10 5.05388e-10 8.42297e-10 1.1792e-09 1.5161e-09 5.61543e-11 1.68461e-10 2.80763e-10 3.93063e-10 5.05366e-10 -5.61543e-11 -1.68461e-10 -2.80763e-10 -3.93063e-10 -5.05366e-10 -1.68465e-10 -5.05388e-10 -8.42297e-10 -1.1792e-09 -1.5161e-09 -2.80779e-10 -8.42327e-10 -1.40385e-09 -1.96534e-09 -2.52684e-09 -3.93099e-10 -1.17928e-09 -1.96541e-09 -2.75147e-09 -3.53758e-09 -5.05448e-10 -1.51632e-09 -2.52709e-09 -3.53769e-09 -4.54793e-09 
</DataArray>
<DataArray Name="Stress_11" format="ascii" type="Float64">
173.571 166.514 160.028 156.431 155.397 140.05 144.331 147.215 147.87 147.523 99.6915 104.407 109.66 113.246 114.592 59.8481 62.6922 66.3642 69.3399 70.8119 19.9241 20.8785 22.1439 23.2204 23.7949 -19.9241 -20.8785 -22.1439 -23.2204 -23.7949 -59.8481 -62.6922 -66.3642 -69.3399 -70.8119 -99.6915 -104.407 -109.66 -113.246 -114.592 -140.05 -144.331 -147.215 -147.87 -147.523 -173.571 -166.514 -160.028 -156.431 -155.397 156.391 159.105 163.483 169.358 174.782 146.775 145.766 144.261 141.678 138.941 114.002 111.743 107.99 103.39 99.4952 70.5961 68.8409 65.9073 62.4881 59.8051 23.7537 23.1332 22.0819 20.8701 19.9324 -23.7537 -23.1332 -22.0819 -20.8701 -19.9324 -70.5961 -68.8409 -65.9073 -62.4881 -59.8051 -114.002 -111.743 -107.99 -103.39 -99.4952 -146.775 -145.766 -144.261 -141.678 -138.941 -156.391 -159.105 -163.483 -169.358 -174.782 
</DataArray>
<DataArray Name="Stress_22" format="ascii" type="Float64">
-37.3507 -29.421 -29.9869 -30.3676 -30.7084 -34.4536 -23.3438 -20.8289 -21.3655 -22.0669 -28.9649 -17.4347 -13.4415 -13.1103 -13.7607 -19.2415 -10.9868 -7.59365 -6.88523 -7.17883 -6.726 -3.76655 -2.46578 -2.12841 -2.19325 6.726 3.76655 2.46578 2.12841 2.19325 19.2415 10.9868 7.59365 6.88523 7.17883 28.9649 17.4347 13.4415 13.1103 13.7607 34.4536 23.3438 20.8289 21.3655 22.0669 37.3507 29.421 29.9869 30.3676 30.7084 -30.8456 -30.8081 -30.7566 -30.6404 -36.1138 -22.4402 -22.481 -22.5899 -24.7196 -32.2655 -14.2652 -14.5394 -15.3318 -18.4507 -26.8114 -7.57975 -7.96253 -8.87478 -11.5197 -17.8436 -2.34052 -2.51479 -2.9042 -3.92636 -6.25625 2.34052 2.51479 2.9042 3.92636 6.25625 7.57975 7.96253 8.87478 11.5197 17.8436 14.2652 14.5394 15.3318 18.4507 26.8114 22.4402 22.481 22.5899 24.7196 32.2655 30.8456 30.8081 30.7566 30.6404 36.1138 
</DataArray>
<DataArray Name="Stress_12" format="ascii" type="Float64">
2.145e+08 2.145e+08 2.145e+08 2.145e+08 2.145e+08 2.145e+08 2.145e+08 2.145e+08 2.145e+08 2.145e+08 2.145e+08 2.145e+08 2.145e+08 2.145e+08 2.145e+08 2.145e+08 2.145e+08 2.145e+08 2.145e+08 2.145e+08 2.145e+08 2.145e+08 2.145e+08 2.145e+08 2.145e+08 2.145e+08 2.145e+08 2.145e+08 2.145e+08 2.145e+08 2.145e+08 2.145e+08 2.145e+08 2.145e+08 2.145e+08 2.145e+08 2.145e+08 2.145e+08 2.145e+08 2.145e+08 2.145e+08 2.145e+08 2.145e+08 2.145e+08 2.145e+08 2.145e+08 2.145e+08 2.145e+08 2.145e+08 2.145e+08 2.145e+08 2.145e+08 2.145e+08 2.145e+08 2.145e+08 2.145e+08 2.145e+08 2.145e+08 2.145e+08 2.145e+08 2.145e+08 2.145e+08 2.145e+08 2.145e+08 2.145e+08 2.145e+08 2.145e+08 2.145e+08 2.145e+08 2.145e+08 2.145e+08 2.145e+08 2.145e+08 2.145e+08 2.145e+08 2.145e+08 2.145e+08 2.145e+08 2.145e+08 2.145e+08 2.145e+08 2.145e+08 2.145e+08 2.145e+08 2.145e+08 2.145e+08 2.145e+08 2.145e+08 2.145e+08 2.145e+08 2.145e+08 2.145e+08 2.145e+08 2.145e+08 2.145e+08 2.145e+08 2.145e+08 2.145e+08 2.145e+08 2.145e+08 
</DataArray>
<DataArray Name="Stress_13" format="ascii" type="Float64">
257.109 169.033 118.103 91.9621 84.7321 223.131 174.807 138.776 117.191 108.78 163.477 137.71 116.967 103.292 97.2617 99.5521 86.4306 75.7032 68.399 65.0011 33.368 29.3621 26.0399 23.7481 22.6595 -33.368 -29.3621 -26.0399 -23.7481 -22.6595 -99.5521 -86.4306 -75.7032 -68.399 -65.0011 -163.477 -137.71 -116.967 -103.292 -97.2617 -223.131 -174.807 -138.776 -117.191 -108.78 -257.109 -169.033 -118.103 -91.9621 -84.7321 93.1874 115.704 151.992 203.381 274.602 112.21 126.474 150.91 185.01 226.727 98.644 106.958 121.581 141.51 165.005 65.558 69.862 77.52 87.9037 100.102 22.8103 24.1417 26.5233 29.7492 33.518 -22.8103 -24.1417 -26.5233 -29.7492 -33.518 -65.558 -69.862 -77.52 -87.9037 -100.102 -98.644 -106.958 -121.581 -141.51 -165.005 -112.21 -126.474 -150.91 -185.01 -226.727 -93.1874 -115.704 -151.992 -203.381 -274.602 
</DataArray>
<DataArray Name="Stress_23" format="ascii" type="Float64">
3.7855e+09 3.7855e+09 3.7855e+09 3.7855e+09 3.7855e+09 3.7855e+09 3.7855e+09 3.7855e+09 3.7855e+09 3.7855e+09 3.7855e+09 3.7855e+09 3.7855e+09 3.7855e+09 3.7855e+09 3.7855e+09 3.7855e+09 3.7855e+09 3.7855e+09 3.7855e+09 3.7855e+09 3.7855e+09 3.7855e+09 3.7855e+09 3.7855e+09 3.7855e+09 3.7855e+09 3.7855e+09 3.7855e+09 3.7855e+09 3.7855e+09 3.7855e+09 3.7855e+09 3.7855e+09 3.7855e+09 3.7855e+09 3.7855e+09 3.7855e+09 3.7855e+09 3.7855e+09 3.7855e+09 3.7855e+09 3.7855e+09 3.7855e+09 3.7855e+09 3.7855e+09 3.7855e+09 3.7855e+09 3.7855e+09 3.7855e+09 3.7855e+09 3.7855e+09 3.7855e+09 3.7855e+09 3.7855e+09 3.7855e+09 3.7855e+09 3.7855e+09 3.7855e+09 3.7855e+09 3.7855e+09 3.7855e+09 3.7855e+09 3.7855e+09 3.7855e+09 3.7855e+09 3.7855e+09 3.7855e+09 3.7855e+09 3.7855e+09 3.7855e+09 3.7855e+09 3.7855e+09 3.7855e+09 3.7855e+09 3.7855e+09 3.7855e+09 3.7855e+09 3.7855e+09 3.7855e+09 3.7855e+09 3.7855e+09 3.7855e+09 3.7855e+09 3.7855e+09 3.7855e+09 3.7855e+09 3.7855e+09 3.7855e+09 3.7855e+09 3.7855e+09 3.7855e+09 3.7855e+09 3.7855e+09 3.7855e+09 3.7855e+09 3.7855e+09 3.7855e+09 3.7855e+09 3.7855e+09 
</DataArray>
<DataArray Name="Stress_33" format="ascii" type="Float64">
113.546 87.4904 74.8817 73.7351 81.4451 98.47 91.6421 87.1462 87.0003 91.9003 70.7719 71.1047 71.7701 73.7765 77.8417 42.6 44.1254 45.6984 47.7267 50.5384 14.1855 14.9034 15.5932 16.3876 17.384 -14.1855 -14.9034 -15.5932 -16.3876 -17.384 -42.6 -44.1254 -45.6984 -47.7267 -50.5384 -70.7719 -71.1047 -71.7701 -73.7765 -77.8417 -98.47 -91.6421 -87.1462 -87.0003 -91.9003 -113.546 -87.4904 -74.8817 -73.7351 -81.4451 96.5062 118.118 146.095 180.937 222.388 101.651 115.89 134.147 155.476 178.502 84.2798 93.0157 103.662 115.581 127.888 54.3156 59.0617 64.6096 70.6519 76.7738 18.6369 20.1502 21.878 23.7299 25.5725 -18.6369 -20.1502 -21.878 -23.7299 -25.5725 -54.3156 -59.0617 -64.6096 -70.6519 -76.7738 -84.2798 -93.0157 -103.662 -115.581 -127.888 -101.651 -115.89 -134.147 -155.476 -178.502 -96.5062 -118.118 -146.095 -180.937 -222.388 
</DataArray>
</CellData>
<Points>
<DataArray NumberOfComponents="3" format="ascii" type="Float64">
0 0 0 0 0.05 0 0 0.01 0 0 0.02 0 0 0.03 0 0 0.04 0 0.05 0.05 0 0.01 0.05 0 0.02 0.05 0 0.03 0.05 0 0.04 0.05 0 0.05 0 0 0.05 0.04 0 0.05 0.03 0 0.05 0.02 0 0.05 0.01 0 0.04 0 0 0.03 0 0 0.02 0 0 0.01 0 0 0.01 0.01 0 0.01 0.02 0 0.01 0.03 0 0.01 0.04 0 0.02 0.01 0 0.02 0.02 0 0.02 0.03 0 0.02 0.04 0 0.03 0.01 0 0.03 0.02 0 0.03 0.03 0 0.03 0.04 0 0.04 0.01 0 0.04 0.02 0 0.04 0.03 0 0.04 0.04 0 0 0.1 0 0 0.06 0 0 0.07 0 0 0.08 0 0 0.09 0 0.05 0.1 0 0.01 0.1 0 0.02 0.1 0 0.03 0.1 0 0.04 0.1 0 0.05 0.09 0 0.05 0.08 0 0.05 0.07 0 0.05 0.06 0 0.01 0.06 0 0.01 0.07 0 0.01 0.08 0 0.01 0.09 0 0.02 0.06 0 0.02 0.07 0 0.02 0.08 0 0.02 0.09 0 0.03 0.06 0 0.03 0.07 0 0.03 0.08 0 0.03 0.09 0 0.04 0.06 0 0.04 0.07 0 0.04 0.08 0 0.04 0.09 0 0.1 0.05 0 0.06 0.05 0 0.07 0.05 0 0.08 0.05 0 0.09 0.05 0 0.1 0 0 0.1 0.04 0 0.1 0.03 0 0.1 0.02 0 0.1 0.01 0 0.09 0 0 0.08 0 0 0.07 0 0 0.06 0 0 0.06 0.01 0 0.06 0.02 0 0.06 0.03 0 0.06 0.04 0 0.07 0.01 0 0.07 0.02 0 0.07 0.03 0 0.07 0.04 0 0.08 0.01 0 0.08 0.02 0 0.08 0.03 0 0.08 0.04 0 0.09 0.01 0 0.09 0.02 0 0.09 0.03 0 0.09 0.04 0 0.1 0.1 0 0.06 0.1 0 0.07 0.1 0 0.08 0.1 0 0.09 0.1 0 0.1 0.09 0 0.1 0.08 0 0.1 0.07 0 0.1 0.06 0 0.06 0.06 0 0.06 0.07 0 0.06 0.08 0 0.06 0.09 0 0.07 0.06 0 0.07 0.07 0 0.07 0.08 0 0.07 0.09 0 0.08 0.06 0 0.08 0.07 0 0.08 0.08 0 0.08 0.09 0 0.09 0.06 0 0.09 0.07 0 0.09 0.08 0 0.09 0.09 0 
</DataArray>
</Points>
<Cells>
<DataArray Name="connectivity" format="ascii" type="Int64">
0 19 20 2 19 18 24 20 18 17 28 24 17 16 32 28 16 11 15 32 2 20 21 3 20 24 25 21 24 28 29 25 28 32 33 29 32 15 14 33 3 21 22 4 21 25 26 22 25 29 30 26 29 33 34 30 33 14 13 34 4 22 23 5 22 26 27 23 26 30 31 27 30 34 35 31 34 13 12 35 5 23 7 1 23 27 8 7 27 31 9 8 31 35 10 9 35 12 6 10 1 7 50 37 7 8 54 50 8 9 58 54 9 10 62 58 10 6 49 62 37 50 51 38 50 54 55 51 54 58 59 55 58 62 63 59 62 49 48 63 38 51 52 39 51 55 56 52 55 59 60 56 59 63 64 60 63 48 47 64 39 52 53 40 52 56 57 53 56 60 61 57 60 64 65 61 64 47 46 65 40 53 42 36 53 57 43 42 57 61 44 43 61 65 45 44 65 46 41 45 11 79 80 15 79 78 84 80 78 77 88 84 77 76 92 88 76 71 75 92 15 80 81 14 80 84 85 81 84 88 89 85 88 92 93 89 92 75 74 93 14 81 82 13 81 85 86 82 85 89 90 86 89 93 94 90 93 74 73 94 13 82 83 12 82 86 87 83 86 90 91 87 90 94 95 91 94 73 72 95 12 83 67 6 83 87 68 67 87 91 69 68 91 95 70 69 95 72 66 70 6 67 105 49 67 68 109 105 68 69 113 109 69 70 117 113 70 66 104 117 49 105 106 48 105 109 110 106 109 113 114 110 113 117 118 114 117 104 103 118 48 106 107 47 106 110 111 107 110 114 115 111 114 118 119 115 118 103 102 119 47 107 108 46 107 111 112 108 111 115 116 112 115 119 120 116 119 102 101 120 46 108 97 41 108 112 98 97 112 116 99 98 116 120 100 99 120 101 96 100 
</DataArray>
<DataArray Name="offsets" format="ascii" type="Int64">
4 8 12 16 20 24 28 32 36 40 44 48 52 56 60 64 68 72 76 80 84 88 92 96 100 104 108 112 116 120 124 128 132 136 140 144 148 152 156 160 164 168 172 176 180 184 188 192 196 200 204 208 212 216 220 224 228 232 236 240 244 248 252 256 260 264 268 272 276 280 284 288 292 296 300 304 308 312 316 320 324 328 332 336 340 344 348 352 356 360 364 368 372 376 380 384 388 392 396 400 
</DataArray>
<DataArray Name="types" format="ascii" type="Int8">
9 9 9 9 9 9 9 9 9 9 9 9 9 9 9 9 9 9 9 9 9 9 9 9 9 9 9 9 9 9 9 9 9 9 9 9 9 9 9 9 9 9 9 9 9 9 9 9 9 9 9 9 9 9 9 9 9 9 9 9 9 9 9 9 9 9 9 9 9 9 9 9 9 9 9 9 9 9 9 9 9 9 9 9 9 9 9 9 9 9 9 9 9 9 9 9 9 9 9 9 
</DataArray>
</Cells>
</Piece>
</UnstructuredGrid>
</VTKFile>
