<?xml version="1.0"?>
<VTKFile byte_order="LittleEndian" type="UnstructuredGrid" version="0.1">
<UnstructuredGrid>
<Piece NumberOfCells="100" NumberOfPoints="121">
<PointData>
<DataArray Name="Warping_X" format="ascii" type="Float64">
9.84736e-10 4.51066e-09 2.26138e-09 3.24617e-09 3.94878e-09 4.3702e-09 -6.63312e-10 2.64854e-09 1.19997e-09 1.6496e-10 -4.56219e-10 -4.17641e-09 -8.03991e-10 -1.22603e-09 -1.92936e-09 -2.91342e-09 -3.96988e-09 -3.35035e-09 -2.31806e-09 -8.73041e-10 3.9953e-10 1.38431e-09 2.08676e-09 2.5081e-09 -1.05054e-09 -6.50235e-11 6.37911e-10 1.05947e-09 -2.08561e-09 -1.10079e-09 -3.97474e-10 2.43672e-11 -2.70648e-09 -1.72222e-09 -1.01888e-09 -5.96877e-10 9.84736e-10 4.3702e-09 3.94878e-09 3.24617e-09 2.26138e-09 -4.17641e-09 -8.73041e-10 -2.31806e-09 -3.35035e-09 -3.96988e-09 -2.91342e-09 -1.92936e-09 -1.22603e-09 -8.03991e-10 2.5081e-09 2.08676e-09 1.38431e-09 3.9953e-10 1.05947e-09 6.37911e-10 -6.50235e-11 -1.05054e-09 2.43672e-11 -3.97474e-10 -1.10079e-09 -2.08561e-09 -5.96877e-10 -1.01888e-09 -1.72222e-09 -2.70648e-09 4.51066e-09 -4.56219e-10 1.6496e-10 1.19997e-09 2.64854e-09 9.84736e-10 4.3702e-09 3.94878e-09 3.24617e-09 2.26138e-09 -8.73041e-10 -2.31806e-09 -3.35035e-09 -3.96988e-09 -2.70648e-09 -1.72222e-09 -1.01888e-09 -5.96877e-10 -2.08561e-09 -1.10079e-09 -3.97474e-10 2.43672e-11 -1.05054e-09 -6.50235e-11 6.37911e-10 1.05947e-09 3.9953e-10 1.38431e-09 2.08676e-09 2.5081e-09 9.84736e-10 -3.96988e-09 -3.35035e-09 -2.31806e-09 -8.73041e-10 2.26138e-09 3.24617e-09 3.94878e-09 4.3702e-09 -5.96877e-10 -1.01888e-09 -1.72222e-09 -2.70648e-09 2.43672e-11 -3.97474e-10 -1.10079e-09 -2.08561e-09 1.05947e-09 6.37911e-10 -6.50235e-11 -1.05054e-09 2.5081e-09 2.08676e-09 1.38431e-09 3.9953e-10 
</DataArray>
<DataArray Name="Warping_Y" format="ascii" type="Float64">
7.04708e-09 2.07606e-24 5.62904e-09 4.21858e-09 2.81143e-09 1.40551e-09 -1.34156e-24 3.6326e-25 -1.89097e-25 -2.38631e-25 -5.05195e-25 2.06639e-24 -4.46548e-25 3.64037e-25 1.18892e-24 2.0286e-24 1.40153e-09 2.80382e-09 4.20823e-09 5.61605e-09 4.49581e-09 3.37266e-09 2.24845e-09 1.1242e-09 3.367e-09 2.52653e-09 1.68493e-09 8.42608e-10 2.24319e-09 1.6829e-09 1.12236e-09 5.61323e-10 1.12119e-09 8.41073e-10 5.60888e-10 2.80514e-10 -7.04708e-09 -1.40551e-09 -2.81143e-09 -4.21858e-09 -5.62904e-09 -5.59747e-24 -5.61605e-09 -4.20823e-09 -2.80382e-09 -1.40153e-09 -5.5479e-24 -4.64405e-24 -3.51024e-24 -2.36516e-24 -1.1242e-09 -2.24845e-09 -3.37266e-09 -4.49581e-09 -8.42608e-10 -1.68493e-09 -2.52653e-09 -3.367e-09 -5.61323e-10 -1.12236e-09 -1.6829e-09 -2.24319e-09 -2.80514e-10 -5.60888e-10 -8.41073e-10 -1.12119e-09 -1.36767e-24 -1.12583e-24 -8.5452e-25 -3.32829e-25 1.53185e-24 -7.04708e-09 -1.40551e-09 -2.81143e-09 -4.21858e-09 -5.62904e-09 -5.61605e-09 -4.20823e-09 -2.80382e-09 -1.40153e-09 -1.12119e-09 -8.41073e-10 -5.60888e-10 -2.80514e-10 -2.24319e-09 -1.6829e-09 -1.12236e-09 -5.61323e-10 -3.367e-09 -2.52653e-09 -1.68493e-09 -8.42608e-10 -4.49581e-09 -3.37266e-09 -2.24845e-09 -1.1242e-09 7.04708e-09 1.40153e-09 2.80382e-09 4.20823e-09 5.61605e-09 5.62904e-09 4.21858e-09 2.81143e-09 1.40551e-09 2.80514e-10 5.60888e-10 8.41073e-10 1.12119e-09 5.61323e-10 1.12236e-09 1.6829e-09 2.24319e-09 8.42608e-10 1.68493e-09 2.52653e-09 3.367e-09 1.1242e-09 2.24845e-09 3.37266e-09 4.49581e-09 
</DataArray>
<DataArray Name="Warping_Z" format="ascii" type="Float64">
0 0 0 0 0 0 0 0 0 0 0 0 0 0 0 0 0 0 0 0 0 0 0 0 0 0 0 0 0 0 0 0 0 0 0 0 0 0 0 0 0 0 0 0 0 0 0 0 0 0 0 0 0 0 0 0 0 0 0 0 0 0 0 0 0 0 0 0 0 0 0 0 0 0 0 0 0 0 0 0 0 0 0 0 0 0 0 0 0 0 0 0 0 0 0 0 0 0 0 0 0 0 0 0 0 0 0 0 0 0 0 0 0 0 0 0 0 0 0 0 0 
</DataArray>
</PointData>
<CellData>
<DataArray Name="MaterialId" format="ascii" type="Float64">
5 5 5 5 5 5 5 5 5 5 5 5 5 5 5 5 5 5 5 5 5 5 5 5 5 5 5 5 5 5 5 5 5 5 5 5 5 5 5 5 5 5 5 5 5 5 5 5 5 5 5 5 5 5 5 5 5 5 5 5 5 5 5 5 5 5 5 5 5 5 5 5 5 5 5 5 5 5 5 5 5 5 5 5 5 5 5 5 5 5 5 5 5 5 5 5 5 5 5 5 
</DataArray>
<DataArray Name="FiberAngle" format="ascii" type="Float64">
45 45 45 45 45 45 45 45 45 45 45 45 45 45 45 45 45 45 45 45 45 45 45 45 45 45 45 45 45 45 45 45 45 45 45 45 45 45 45 45 45 45 45 45 45 45 45 45 45 45 45 45 45 45 45 45 45 45 45 45 45 45 45 45 45 45 45 45 45 45 45 45 45 45 45 45 45 45 45 45 45 45 45 45 45 45 45 45 45 45 45 45 45 45 45 45 45 45 45 45 
</DataArray>
<DataArray Name="Strain_11" format="ascii" type="Float64">
-1.85981e-07 -1.44754e-07 -1.03368e-07 -6.20203e-08 -2.0673e-08 -1.86185e-07 -1.4497e-07 -1.03542e-07 -6.21153e-08 -2.07036e-08 -1.86194e-07 -1.44909e-07 -1.03557e-07 -6.21418e-08 -2.07145e-08 -1.86206e-07 -1.44874e-07 -1.03524e-07 -6.21325e-08 -2.07133e-08 -1.86211e-07 -1.4486e-07 -1.03505e-07 -6.21211e-08 -2.07103e-08 -1.86211e-07 -1.4486e-07 -1.03505e-07 -6.21211e-08 -2.07103e-08 -1.86206e-07 -1.44874e-07 -1.03524e-07 -6.21325e-08 -2.07133e-08 -1.86194e-07 -1.44909e-07 -1.03557e-07 -6.21418e-08 -2.07145e-08 -1.86185e-07 -1.4497e-07 -1.03542e-07 -6.21153e-08 -2.07036e-08 -1.85981e-07 -1.44754e-07 -1.03368e-07 -6.20203e-08 -2.0673e-08 2.0673e-08 6.20203e-08 1.03368e-07 1.44754e-07 1.85981e-07 2.07036e-08 6.21153e-08 1.03542e-07 1.4497e-07 1.86185e-07 2.07145e-08 6.21418e-08 1.03557e-07 1.44909e-07 1.86194e-07 2.07133e-08 6.21325e-08 1.03524e-07 1.44874e-07 1.86206e-07 2.07103e-08 6.21211e-08 1.03505e-07 1.4486e-07 1.86211e-07 2.07103e-08 6.21211e-08 1.03505e-07 1.4486e-07 1.86211e-07 2.07133e-08 6.21325e-08 1.03524e-07 1.44874e-07 1.86206e-07 2.07145e-08 6.21418e-08 1.03557e-07 1.44909e-07 1.86194e-07 2.07036e-08 6.21153e-08 1.03542e-07 1.4497e-07 1.86185e-07 2.0673e-08 6.20203e-08 1.03368e-07 1.44754e-07 1.85981e-07 
</DataArray>
<DataArray Name="Strain_22" format="ascii" type="Float64">
-1.26914e-07 -9.80737e-08 -7.00936e-08 -4.20491e-08 -1.40171e-08 -1.26681e-07 -9.81809e-08 -7.00378e-08 -4.20202e-08 -1.40057e-08 -1.26568e-07 -9.82901e-08 -7.01065e-08 -4.2036e-08 -1.40093e-08 -1.26509e-07 -9.83288e-08 -7.01682e-08 -4.20706e-08 -1.40187e-08 -1.26486e-07 -9.83406e-08 -7.01966e-08 -4.20918e-08 -1.40257e-08 -1.26486e-07 -9.83406e-08 -7.01966e-08 -4.20918e-08 -1.40257e-08 -1.26509e-07 -9.83288e-08 -7.01682e-08 -4.20706e-08 -1.40187e-08 -1.26568e-07 -9.82901e-08 -7.01065e-08 -4.2036e-08 -1.40093e-08 -1.26681e-07 -9.81809e-08 -7.00378e-08 -4.20202e-08 -1.40057e-08 -1.26914e-07 -9.80737e-08 -7.00936e-08 -4.20491e-08 -1.40171e-08 1.40171e-08 4.20491e-08 7.00936e-08 9.80737e-08 1.26914e-07 1.40057e-08 4.20202e-08 7.00378e-08 9.81809e-08 1.26681e-07 1.40093e-08 4.2036e-08 7.01065e-08 9.82901e-08 1.26568e-07 1.40187e-08 4.20706e-08 7.01682e-08 9.83288e-08 1.26509e-07 1.40257e-08 4.20918e-08 7.01966e-08 9.83406e-08 1.26486e-07 1.40257e-08 4.20918e-08 7.01966e-08 9.83406e-08 1.26486e-07 1.40187e-08 4.20706e-08 7.01682e-08 9.83288e-08 1.26509e-07 1.40093e-08 4.2036e-08 7.01065e-08 9.82901e-08 1.26568e-07 1.40057e-08 4.20202e-08 7.00378e-08 9.81809e-08 1.26681e-07 1.40171e-08 4.20491e-08 7.00936e-08 9.80737e-08 1.26914e-07 
</DataArray>
<DataArray Name="Strain_12" format="ascii" type="Float64">
-7.52148e-10 1.73015e-10 2.02724e-10 1.92681e-10 1.83728e-10 -4.78285e-10 -2.32643e-10 1.44546e-10 2.63245e-10 3.03137e-10 -1.91883e-10 -2.13619e-10 2.22961e-12 1.67931e-10 2.35342e-10 -7.63268e-11 -1.10788e-10 -2.2858e-11 7.79455e-11 1.32027e-10 -2.03025e-11 -3.30867e-11 -9.83459e-12 2.20397e-11 4.11841e-11 2.03025e-11 3.30867e-11 9.83459e-12 -2.20397e-11 -4.11841e-11 7.63268e-11 1.10788e-10 2.2858e-11 -7.79455e-11 -1.32027e-10 1.91883e-10 2.13619e-10 -2.22961e-12 -1.67931e-10 -2.35342e-10 4.78285e-10 2.32643e-10 -1.44546e-10 -2.63245e-10 -3.03137e-10 7.52148e-10 -1.73015e-10 -2.02724e-10 -1.92681e-10 -1.83728e-10 1.83728e-10 1.92681e-10 2.02724e-10 1.73015e-10 -7.52148e-10 3.03137e-10 2.63245e-10 1.44546e-10 -2.32643e-10 -4.78285e-10 2.35342e-10 1.67931e-10 2.22961e-12 -2.13619e-10 -1.91883e-10 1.32027e-10 7.79455e-11 -2.2858e-11 -1.10788e-10 -7.63268e-11 4.11841e-11 2.20397e-11 -9.83459e-12 -3.30867e-11 -2.03025e-11 -4.11841e-11 -2.20397e-11 9.83459e-12 3.30867e-11 2.03025e-11 -1.32027e-10 -7.79455e-11 2.2858e-11 1.10788e-10 7.63268e-11 -2.35342e-10 -1.67931e-10 -2.22961e-12 2.13619e-10 1.91883e-10 -3.03137e-10 -2.63245e-10 -1.44546e-10 2.32643e-10 4.78285e-10 -1.83728e-10 -1.92681e-10 -2.02724e-10 -1.73015e-10 7.52148e-10 
</DataArray>
<DataArray Name="Strain_13" format="ascii" type="Float64">
-2.01351e-07 -1.56493e-07 -1.11787e-07 -6.70695e-08 -2.23564e-08 -2.01268e-07 -1.56456e-07 -1.11759e-07 -6.70587e-08 -2.23532e-08 -2.01238e-07 -1.56464e-07 -1.11736e-07 -6.70409e-08 -2.23471e-08 -2.01226e-07 -1.56478e-07 -1.11742e-07 -6.70346e-08 -2.23436e-08 -2.01221e-07 -1.56483e-07 -1.11749e-07 -6.70368e-08 -2.23433e-08 -2.01221e-07 -1.56483e-07 -1.11749e-07 -6.70368e-08 -2.23433e-08 -2.01226e-07 -1.56478e-07 -1.11742e-07 -6.70346e-08 -2.23436e-08 -2.01238e-07 -1.56464e-07 -1.11736e-07 -6.70409e-08 -2.23471e-08 -2.01268e-07 -1.56456e-07 -1.11759e-07 -6.70587e-08 -2.23532e-08 -2.01351e-07 -1.56493e-07 -1.11787e-07 -6.70695e-08 -2.23564e-08 2.23564e-08 6.70695e-08 1.11787e-07 1.56493e-07 2.01351e-07 2.23532e-08 6.70587e-08 1.11759e-07 1.56456e-07 2.01268e-07 2.23471e-08 6.70409e-08 1.11736e-07 1.56464e-07 2.01238e-07 2.23436e-08 6.70346e-08 1.11742e-07 1.56478e-07 2.01226e-07 2.23433e-08 6.70368e-08 1.11749e-07 1.56483e-07 2.01221e-07 2.23433e-08 6.70368e-08 1.11749e-07 1.56483e-07 2.01221e-07 2.23436e-08 6.70346e-08 1.11742e-07 1.56478e-07 2.01226e-07 2.23471e-08 6.70409e-08 1.11736e-07 1.56464e-07 2.01238e-07 2.23532e-08 6.70587e-08 1.11759e-07 1.56456e-07 2.01268e-07 2.23564e-08 6.70695e-08 1.11787e-07 1.56493e-07 2.01351e-07 
</DataArray>
<DataArray Name="Strain_23" format="ascii" type="Float64">
-1.07287e-10 -8.76762e-12 3.47004e-11 4.065e-11 4.07039e-11 -4.75631e-11 -2.51416e-11 -2.54537e-12 3.07033e-11 4.45468e-11 1.54614e-12 2.84777e-13 -8.72139e-12 -1.63914e-12 8.52961e-12 8.32114e-12 8.32487e-12 -1.18957e-12 -7.50681e-12 -7.94963e-12 3.77455e-12 3.62798e-12 2.46497e-13 -3.08835e-12 -4.56068e-12 -3.77455e-12 -3.62798e-12 -2.46497e-13 3.08835e-12 4.56068e-12 -8.32114e-12 -8.32487e-12 1.18957e-12 7.50681e-12 7.94963e-12 -1.54614e-12 -2.84777e-13 8.72139e-12 1.63914e-12 -8.52961e-12 4.75631e-11 2.51416e-11 2.54537e-12 -3.07033e-11 -4.45468e-11 1.07287e-10 8.76762e-12 -3.47004e-11 -4.065e-11 -4.07039e-11 4.07039e-11 4.065e-11 3.47004e-11 -8.76762e-12 -1.07287e-10 4.45468e-11 3.07033e-11 -2.54537e-12 -2.51416e-11 -4.75631e-11 8.52961e-12 -1.63914e-12 -8.72139e-12 2.84777e-13 1.54614e-12 -7.94963e-12 -7.50681e-12 -1.18957e-12 8.32487e-12 8.32114e-12 -4.56068e-12 -3.08835e-12 2.46497e-13 3.62798e-12 3.77455e-12 4.56068e-12 3.08835e-12 -2.46497e-13 -3.62798e-12 -3.77455e-12 7.94963e-12 7.50681e-12 1.18957e-12 -8.32487e-12 -8.32114e-12 -8.52961e-12 1.63914e-12 8.72139e-12 -2.84777e-13 -1.54614e-12 -4.45468e-11 -3.07033e-11 2.54537e-12 2.51416e-11 4.75631e-11 -4.07039e-11 -4.065e-11 -3.47004e-11 8.76762e-12 1.07287e-10 
</DataArray>
<DataArray Name="Strain_33" format="ascii" type="Float64">
-0.005 -0.015 -0.025 -0.035 -0.045 -0.005 -0.015 -0.025 -0.035 -0.045 -0.005 -0.015 -0.025 -0.035 -0.045 -0.005 -0.015 -0.025 -0.035 -0.045 -0.005 -0.015 -0.025 -0.035 -0.045 -0.005 -0.015 -0.025 -0.035 -0.045 -0.005 -0.015 -0.025 -0.035 -0.045 -0.005 -0.015 -0.025 -0.035 -0.045 -0.005 -0.015 -0.025 -0.035 -0.045 -0.005 -0.015 -0.025 -0.035 -0.045 -0.055 -0.065 -0.075 -0.085 -0.095 -0.055 -0.065 -0.075 -0.085 -0.095 -0.055 -0.065 -0.075 -0.085 -0.095 -0.055 -0.065 -0.075 -0.085 -0.095 -0.055 -0.065 -0.075 -0.085 -0.095 -0.055 -0.065 -0.075 -0.085 -0.095 -0.055 -0.065 -0.075 -0.085 -0.095 -0.055 -0.065 -0.075 -0.085 -0.095 -0.055 -0.065 -0.075 -0.085 -0.095 -0.055 -0.065 -0.075 -0.085 -0.095 
</DataArray>
<DataArray Name="Stress_11" format="ascii" type="Float64">
-6.15922e+07 -1.84763e+08 -3.07935e+08 -4.31106e+08 -5.54277e+08 -6.15922e+07 -1.84763e+08 -3.07935e+08 -4.31106e+08 -5.54277e+08 -6.15922e+07 -1.84763e+08 -3.07935e+08 -4.31106e+08 -5.54277e+08 -6.15922e+07 -1.84763e+08 -3.07935e+08 -4.31106e+08 -5.54277e+08 -6.15922e+07 -1.84763e+08 -3.07935e+08 -4.31106e+08 -5.54277e+08 -6.15922e+07 -1.84763e+08 -3.07935e+08 -4.31106e+08 -5.54277e+08 -6.15922e+07 -1.84763e+08 -3.07935e+08 -4.31106e+08 -5.54277e+08 -6.15922e+07 -1.84763e+08 -3.07935e+08 -4.31106e+08 -5.54277e+08 -6.15922e+07 -1.84763e+08 -3.07935e+08 -4.31106e+08 -5.54277e+08 -6.15922e+07 -1.84763e+08 -3.07935e+08 -4.31106e+08 -5.54277e+08 -6.77448e+08 -8.00619e+08 -9.23791e+08 -1.04696e+09 -1.17013e+09 -6.77448e+08 -8.00619e+08 -9.23791e+08 -1.04696e+09 -1.17013e+09 -6.77448e+08 -8.00619e+08 -9.23791e+08 -1.04696e+09 -1.17013e+09 -6.77448e+08 -8.00619e+08 -9.23791e+08 -1.04696e+09 -1.17013e+09 -6.77448e+08 -8.00619e+08 -9.23791e+08 -1.04696e+09 -1.17013e+09 -6.77448e+08 -8.00619e+08 -9.23791e+08 -1.04696e+09 -1.17013e+09 -6.77448e+08 -8.00619e+08 -9.23791e+08 -1.04696e+09 -1.17013e+09 -6.77448e+08 -8.00619e+08 -9.23791e+08 -1.04696e+09 -1.17013e+09 -6.77448e+08 -8.00619e+08 -9.23791e+08 -1.04696e+09 -1.17013e+09 -6.77448e+08 -8.00619e+08 -9.23791e+08 -1.04696e+09 -1.17013e+09 
</DataArray>
<DataArray Name="Stress_22" format="ascii" type="Float64">
-2.58457e+07 -7.75315e+07 -1.29217e+08 -1.80903e+08 -2.32589e+08 -2.58457e+07 -7.75315e+07 -1.29217e+08 -1.80903e+08 -2.32589e+08 -2.58457e+07 -7.75315e+07 -1.29217e+08 -1.80903e+08 -2.32589e+08 -2.58457e+07 -7.75315e+07 -1.29217e+08 -1.80903e+08 -2.32589e+08 -2.58457e+07 -7.75315e+07 -1.29217e+08 -1.80903e+08 -2.32589e+08 -2.58457e+07 -7.75315e+07 -1.29217e+08 -1.80903e+08 -2.32589e+08 -2.58457e+07 -7.75315e+07 -1.29217e+08 -1.80903e+08 -2.32589e+08 -2.58457e+07 -7.75315e+07 -1.29217e+08 -1.80903e+08 -2.32589e+08 -2.58457e+07 -7.75315e+07 -1.29217e+08 -1.80903e+08 -2.32589e+08 -2.58457e+07 -7.75315e+07 -1.29217e+08 -1.80903e+08 -2.32589e+08 -2.84275e+08 -3.35961e+08 -3.87646e+08 -4.39332e+08 -4.91018e+08 -2.84275e+08 -3.35961e+08 -3.87646e+08 -4.39332e+08 -4.91018e+08 -2.84275e+08 -3.35961e+08 -3.87646e+08 -4.39332e+08 -4.91018e+08 -2.84275e+08 -3.35961e+08 -3.87646e+08 -4.39332e+08 -4.91018e+08 -2.84275e+08 -3.35961e+08 -3.87646e+08 -4.39332e+08 -4.91018e+08 -2.84275e+08 -3.35961e+08 -3.87646e+08 -4.39332e+08 -4.91018e+08 -2.84275e+08 -3.35961e+08 -3.87646e+08 -4.39332e+08 -4.91018e+08 -2.84275e+08 -3.35961e+08 -3.87646e+08 -4.39332e+08 -4.91018e+08 -2.84275e+08 -3.35961e+08 -3.87646e+08 -4.39332e+08 -4.91018e+08 -2.84275e+08 -3.35961e+08 -3.87646e+08 -4.39332e+08 -4.91018e+08 
</DataArray>
<DataArray Name="Stress_12" format="ascii" type="Float64">
-2.87027 0.653068 0.774854 0.738112 0.704233 -1.82075 -0.886064 0.546632 1.0031 1.15708 -0.72604 -0.808594 0.00656947 0.635349 0.892715 -0.28715 -0.417602 -0.0867842 0.293453 0.498084 -0.0760456 -0.124471 -0.037176 0.0827689 0.154924 0.0760456 0.124471 0.037176 -0.0827689 -0.154924 0.28715 0.417602 0.0867842 -0.293453 -0.498084 0.72604 0.808594 -0.00656947 -0.635349 -0.892715 1.82075 0.886064 -0.546632 -1.0031 -1.15708 2.87027 -0.653068 -0.774854 -0.738112 -0.704233 0.704233 0.738112 0.774854 0.653068 -2.87027 1.15708 1.0031 0.546632 -0.886064 -1.82075 0.892715 0.635349 0.00656947 -0.808594 -0.72604 0.498084 0.293453 -0.0867842 -0.417602 -0.28715 0.154924 0.0827689 -0.037176 -0.124471 -0.0760456 -0.154924 -0.0827689 0.037176 0.124471 0.0760456 -0.498084 -0.293453 0.0867842 0.417602 0.28715 -0.892715 -0.635349 -0.00656947 0.808594 0.72604 -1.15708 -1.0031 -0.546632 0.886064 1.82075 -0.704233 -0.738112 -0.774854 -0.653068 2.87027 
</DataArray>
<DataArray Name="Stress_13" format="ascii" type="Float64">
-3.78896e+07 -1.13661e+08 -1.89432e+08 -2.65203e+08 -3.40974e+08 -3.78896e+07 -1.13661e+08 -1.89432e+08 -2.65203e+08 -3.40974e+08 -3.78896e+07 -1.13661e+08 -1.89432e+08 -2.65203e+08 -3.40974e+08 -3.78896e+07 -1.13661e+08 -1.89432e+08 -2.65203e+08 -3.40974e+08 -3.78896e+07 -1.13661e+08 -1.89432e+08 -2.65203e+08 -3.40974e+08 -3.78896e+07 -1.13661e+08 -1.89432e+08 -2.65203e+08 -3.40974e+08 -3.78896e+07 -1.13661e+08 -1.89432e+08 -2.65203e+08 -3.40974e+08 -3.78896e+07 -1.13661e+08 -1.89432e+08 -2.65203e+08 -3.40974e+08 -3.78896e+07 -1.13661e+08 -1.89432e+08 -2.65203e+08 -3.40974e+08 -3.78896e+07 -1.13661e+08 -1.89432e+08 -2.65203e+08 -3.40974e+08 -4.16745e+08 -4.92516e+08 -5.68287e+08 -6.44058e+08 -7.19829e+08 -4.16745e+08 -4.92516e+08 -5.68287e+08 -6.44058e+08 -7.19829e+08 -4.16745e+08 -4.92516e+08 -5.68287e+08 -6.44058e+08 -7.19829e+08 -4.16745e+08 -4.92516e+08 -5.68287e+08 -6.44058e+08 -7.19829e+08 -4.16745e+08 -4.92516e+08 -5.68287e+08 -6.44058e+08 -7.19829e+08 -4.16745e+08 -4.92516e+08 -5.68287e+08 -6.44058e+08 -7.19829e+08 -4.16745e+08 -4.92516e+08 -5.68287e+08 -6.44058e+08 -7.19829e+08 -4.16745e+08 -4.92516e+08 -5.68287e+08 -6.44058e+08 -7.19829e+08 -4.16745e+08 -4.92516e+08 -5.68287e+08 -6.44058e+08 -7.19829e+08 -4.16745e+08 -4.92516e+08 -5.68287e+08 -6.44058e+08 -7.19829e+08 
</DataArray>
<DataArray Name="Stress_23" format="ascii" type="Float64">
-0.56747 0.00392191 0.174843 0.195211 0.193494 -0.282642 -0.145076 0.0213696 0.172694 0.233655 -0.0353059 -0.0447433 -0.0325366 0.0298161 0.0827696 0.0151276 0.00774976 -0.00940614 -0.0116977 -0.00177347 0.00993367 0.00663663 -0.0011764 -0.00696341 -0.00843049 -0.00993367 -0.00663663 0.0011764 0.00696341 0.00843049 -0.0151276 -0.00774976 0.00940614 0.0116977 0.00177347 0.0353059 0.0447433 0.0325366 -0.0298161 -0.0827696 0.282642 0.145076 -0.0213696 -0.172694 -0.233655 0.56747 -0.00392191 -0.174843 -0.195211 -0.193494 0.193494 0.195211 0.174843 0.00392191 -0.56747 0.233655 0.172694 0.0213696 -0.145076 -0.282642 0.0827696 0.0298161 -0.0325366 -0.0447433 -0.0353059 -0.00177347 -0.0116977 -0.00940614 0.00774976 0.0151276 -0.00843049 -0.00696341 -0.0011764 0.00663663 0.00993367 0.00843049 0.00696341 0.0011764 -0.00663663 -0.00993367 0.00177347 0.0116977 0.00940614 -0.00774976 -0.0151276 -0.0827696 -0.0298161 0.0325366 0.0447433 0.0353059 -0.233655 -0.172694 -0.0213696 0.145076 0.282642 -0.193494 -0.195211 -0.174843 -0.00392191 0.56747 
</DataArray>
<DataArray Name="Stress_33" format="ascii" type="Float64">
-1.01591e+08 -3.04762e+08 -5.07934e+08 -7.11105e+08 -9.14277e+08 -1.01591e+08 -3.04762e+08 -5.07934e+08 -7.11105e+08 -9.14277e+08 -1.01591e+08 -3.04762e+08 -5.07934e+08 -7.11105e+08 -9.14277e+08 -1.01591e+08 -3.04762e+08 -5.07934e+08 -7.11105e+08 -9.14277e+08 -1.01591e+08 -3.04762e+08 -5.07934e+08 -7.11105e+08 -9.14277e+08 -1.01591e+08 -3.04762e+08 -5.07934e+08 -7.11105e+08 -9.14277e+08 -1.01591e+08 -3.04762e+08 -5.07934e+08 -7.11105e+08 -9.14277e+08 -1.01591e+08 -3.04762e+08 -5.07934e+08 -7.11105e+08 -9.14277e+08 -1.01591e+08 -3.04762e+08 -5.07934e+08 -7.11105e+08 -9.14277e+08 -1.01591e+08 -3.04762e+08 -5.07934e+08 -7.11105e+08 -9.14277e+08 -1.11745e+09 -1.32062e+09 -1.52379e+09 -1.72696e+09 -1.93013e+09 -1.11745e+09 -1.32062e+09 -1.52379e+09 -1.72696e+09 -1.93013e+09 -1.11745e+09 -1.32062e+09 -1.52379e+09 -1.72696e+09 -1.93013e+09 -1.11745e+09 -1.32062e+09 -1.52379e+09 -1.72696e+09 -1.93013e+09 -1.11745e+09 -1.32062e+09 -1.52379e+09 -1.72696e+09 -1.93013e+09 -1.11745e+09 -1.32062e+09 -1.52379e+09 -1.72696e+09 -1.93013e+09 -1.11745e+09 -1.32062e+09 -1.52379e+09 -1.72696e+09 -1.93013e+09 -1.11745e+09 -1.32062e+09 -1.52379e+09 -1.72696e+09 -1.93013e+09 -1.11745e+09 -1.32062e+09 -1.52379e+09 -1.72696e+09 -1.93013e+09 -1.11745e+09 -1.32062e+09 -1.52379e+09 -1.72696e+09 -1.93013e+09 
</DataArray>
</CellData>
<Points>
<DataArray NumberOfComponents="3" format="ascii" type="Float64">
0 0 0 0 0.05 0 0 0.01 0 0 0.02 0 0 0.03 0 0 0.04 0 0.05 0.05 0 0.01 0.05 0 0.02 0.05 0 0.03 0.05 0 0.04 0.05 0 0.05 0 0 0.05 0.04 0 0.05 0.03 0 0.05 0.02 0 0.05 0.01 0 0.04 0 0 0.03 0 0 0.02 0 0 0.01 0 0 0.01 0.01 0 0.01 0.02 0 0.01 0.03 0 0.01 0.04 0 0.02 0.01 0 0.02 0.02 0 0.02 0.03 0 0.02 0.04 0 0.03 0.01 0 0.03 0.02 0 0.03 0.03 0 0.03 0.04 0 0.04 0.01 0 0.04 0.02 0 0.04 0.03 0 0.04 0.04 0 0 0.1 0 0 0.06 0 0 0.07 0 0 0.08 0 0 0.09 0 0.05 0.1 0 0.01 0.1 0 0.02 0.1 0 0.03 0.1 0 0.04 0.1 0 0.05 0.09 0 0.05 0.08 0 0.05 0.07 0 0.05 0.06 0 0.01 0.06 0 0.01 0.07 0 0.01 0.08 0 0.01 0.09 0 0.02 0.06 0 0.02 0.07 0 0.02 0.08 0 0.02 0.09 0 0.03 0.06 0 0.03 0.07 0 0.03 0.08 0 0.03 0.09 0 0.04 0.06 0 0.04 0.07 0 0.04 0.08 0 0.04 0.09 0 0.1 0.05 0 0.06 0.05 0 0.07 0.05 0 0.08 0.05 0 0.09 0.05 0 0.1 0 0 0.1 0.04 0 0.1 0.03 0 0.1 0.02 0 0.1 0.01 0 0.09 0 0 0.08 0 0 0.07 0 0 0.06 0 0 0.06 0.01 0 0.06 0.02 0 0.06 0.03 0 0.06 0.04 0 0.07 0.01 0 0.07 0.02 0 0.07 0.03 0 0.07 0.04 0 0.08 0.01 0 0.08 0.02 0 0.08 0.03 0 0.08 0.04 0 0.09 0.01 0 0.09 0.02 0 0.09 0.03 0 0.09 0.04 0 0.1 0.1 0 0.06 0.1 0 0.07 0.1 0 0.08 0.1 0 0.09 0.1 0 0.1 0.09 0 0.1 0.08 0 0.1 0.07 0 0.1 0.06 0 0.06 0.06 0 0.06 0.07 0 0.06 0.08 0 0.06 0.09 0 0.07 0.06 0 0.07 0.07 0 0.07 0.08 0 0.07 0.09 0 0.08 0.06 0 0.08 0.07 0 0.08 0.08 0 0.08 0.09 0 0.09 0.06 0 0.09 0.07 0 0.09 0.08 0 0.09 0.09 0 
</DataArray>
</Points>
<Cells>
<DataArray Name="connectivity" format="ascii" type="Int64">
0 19 20 2 19 18 24 20 18 17 28 24 17 16 32 28 16 11 15 32 2 20 21 3 20 24 25 21 24 28 29 25 28 32 33 29 32 15 14 33 3 21 22 4 21 25 26 22 25 29 30 26 29 33 34 30 33 14 13 34 4 22 23 5 22 26 27 23 26 30 31 27 30 34 35 31 34 13 12 35 5 23 7 1 23 27 8 7 27 31 9 8 31 35 10 9 35 12 6 10 1 7 50 37 7 8 54 50 8 9 58 54 9 10 62 58 10 6 49 62 37 50 51 38 50 54 55 51 54 58 59 55 58 62 63 59 62 49 48 63 38 51 52 39 51 55 56 52 55 59 60 56 59 63 64 60 63 48 47 64 39 52 53 40 52 56 57 53 56 60 61 57 60 64 65 61 64 47 46 65 40 53 42 36 53 57 43 42 57 61 44 43 61 65 45 44 65 46 41 45 11 79 80 15 79 78 84 80 78 77 88 84 77 76 92 88 76 71 75 92 15 80 81 14 80 84 85 81 84 88 89 85 88 92 93 89 92 75 74 93 14 81 82 13 81 85 86 82 85 89 90 86 89 93 94 90 93 74 73 94 13 82 83 12 82 86 87 83 86 90 91 87 90 94 95 91 94 73 72 95 12 83 67 6 83 87 68 67 87 91 69 68 91 95 70 69 95 72 66 70 6 67 105 49 67 68 109 105 68 69 113 109 69 70 117 113 70 66 104 117 49 105 106 48 105 109 110 106 109 113 114 110 113 117 118 114 117 104 103 118 48 106 107 47 106 110 111 107 110 114 115 111 114 118 119 115 118 103 102 119 47 107 108 46 107 111 112 108 111 115 116 112 115 119 120 116 119 102 101 120 46 108 97 41 108 112 98 97 112 116 99 98 116 120 100 99 120 101 96 100 
</DataArray>
<DataArray Name="offsets" format="ascii" type="Int64">
4 8 12 16 20 24 28 32 36 40 44 48 52 56 60 64 68 72 76 80 84 88 92 96 100 104 108 112 116 120 124 128 132 136 140 144 148 152 156 160 164 168 172 176 180 184 188 192 196 200 204 208 212 216 220 224 228 232 236 240 244 248 252 256 260 264 268 272 276 280 284 288 292 296 300 304 308 312 316 320 324 328 332 336 340 344 348 352 356 360 364 368 372 376 380 384 388 392 396 400 
</DataArray>
<DataArray Name="types" format="ascii" type="Int8">
9 9 9 9 9 9 9 9 9 9 9 9 9 9 9 9 9 9 9 9 9 9 9 9 9 9 9 9 9 9 9 9 9 9 9 9 9 9 9 9 9 9 9 9 9 9 9 9 9 9 9 9 9 9 9 9 9 9 9 9 9 9 9 9 9 9 9 9 9 9 9 9 9 9 9 9 9 9 9 9 9 9 9 9 9 9 9 9 9 9 9 9 9 9 9 9 9 9 9 9 
</DataArray>
</Cells>
</Piece>
</UnstructuredGrid>
</VTKFile>
