<?xml version="1.0"?>
<VTKFile byte_order="LittleEndian" type="UnstructuredGrid" version="0.1">
<UnstructuredGrid>
<Piece NumberOfCells="100" NumberOfPoints="121">
<PointData>
<DataArray Name="Warping_X" format="ascii" type="Float64">
-1.04084e-08 -1.8217e-23 -8.3284e-09 -6.24658e-09 -4.16453e-09 -2.08229e-09 -3.99334e-24 -1.62534e-23 -1.39283e-23 -1.06932e-23 -7.16287e-24 3.92168e-24 -1.62741e-24 1.8165e-24 4.45434e-24 5.1207e-24 -2.08182e-09 -4.16362e-09 -6.24534e-09 -8.32689e-09 -6.66247e-09 -4.99727e-09 -3.33163e-09 -1.66585e-09 -4.99667e-09 -3.74786e-09 -2.4987e-09 -1.24938e-09 -3.33105e-09 -2.49851e-09 -1.66578e-09 -8.32914e-10 -1.66551e-09 -1.24923e-09 -8.32876e-10 -4.16453e-10 1.04084e-08 2.08229e-09 4.16453e-09 6.24658e-09 8.3284e-09 3.95346e-26 8.32689e-09 6.24534e-09 4.16362e-09 2.08182e-09 -2.58055e-24 -4.34945e-24 -5.54845e-24 -5.38232e-24 1.66585e-09 3.33163e-09 4.99727e-09 6.66247e-09 1.24938e-09 2.4987e-09 3.74786e-09 4.99667e-09 8.32914e-10 1.66578e-09 2.49851e-09 3.33105e-09 4.16453e-10 8.32876e-10 1.24923e-09 1.66551e-09 9.00056e-24 -6.93e-25 1.83893e-24 4.06959e-24 6.39664e-24 1.04084e-08 2.08229e-09 4.16453e-09 6.24658e-09 8.3284e-09 8.32689e-09 6.24534e-09 4.16362e-09 2.08182e-09 1.66551e-09 1.24923e-09 8.32876e-10 4.16453e-10 3.33105e-09 2.49851e-09 1.66578e-09 8.32914e-10 4.99667e-09 3.74786e-09 2.4987e-09 1.24938e-09 6.66247e-09 4.99727e-09 3.33163e-09 1.66585e-09 -1.04084e-08 -2.08182e-09 -4.16362e-09 -6.24534e-09 -8.32689e-09 -8.3284e-09 -6.24658e-09 -4.16453e-09 -2.08229e-09 -4.16453e-10 -8.32876e-10 -1.24923e-09 -1.66551e-09 -8.32914e-10 -1.66578e-09 -2.49851e-09 -3.33105e-09 -1.24938e-09 -2.4987e-09 -3.74786e-09 -4.99667e-09 -1.66585e-09 -3.33163e-09 -4.99727e-09 -6.66247e-09 
</DataArray>
<DataArray Name="Warping_Y" format="ascii" type="Float64">
1.00922e-09 4.53127e-09 2.27707e-09 3.26332e-09 3.96775e-09 4.39039e-09 -6.73465e-10 2.65738e-09 1.20006e-09 1.59197e-10 -4.65302e-10 -4.19421e-09 -8.14273e-10 -1.23671e-09 -1.94081e-09 -2.92664e-09 -3.98601e-09 -3.36143e-09 -2.32051e-09 -8.63378e-10 4.04111e-10 1.38983e-09 2.09401e-09 2.51654e-09 -1.05297e-09 -6.72614e-11 6.36799e-10 1.05925e-09 -2.09388e-09 -1.1081e-09 -4.04037e-10 1.83893e-11 -2.71845e-09 -1.73263e-09 -1.02854e-09 -6.06109e-10 1.00922e-09 4.39039e-09 3.96775e-09 3.26332e-09 2.27707e-09 -4.19421e-09 -8.63378e-10 -2.32051e-09 -3.36143e-09 -3.98601e-09 -2.92664e-09 -1.94081e-09 -1.23671e-09 -8.14273e-10 2.51654e-09 2.09401e-09 1.38983e-09 4.04111e-10 1.05925e-09 6.36799e-10 -6.72614e-11 -1.05297e-09 1.83893e-11 -4.04037e-10 -1.1081e-09 -2.09388e-09 -6.06109e-10 -1.02854e-09 -1.73263e-09 -2.71845e-09 4.53127e-09 -4.65302e-10 1.59197e-10 1.20006e-09 2.65738e-09 1.00922e-09 4.39039e-09 3.96775e-09 3.26332e-09 2.27707e-09 -8.63378e-10 -2.32051e-09 -3.36143e-09 -3.98601e-09 -2.71845e-09 -1.73263e-09 -1.02854e-09 -6.06109e-10 -2.09388e-09 -1.1081e-09 -4.04037e-10 1.83893e-11 -1.05297e-09 -6.72614e-11 6.36799e-10 1.05925e-09 4.04111e-10 1.38983e-09 2.09401e-09 2.51654e-09 1.00922e-09 -3.98601e-09 -3.36143e-09 -2.32051e-09 -8.63378e-10 2.27707e-09 3.26332e-09 3.96775e-09 4.39039e-09 -6.06109e-10 -1.02854e-09 -1.73263e-09 -2.71845e-09 1.83893e-11 -4.04037e-10 -1.1081e-09 -2.09388e-09 1.05925e-09 6.36799e-10 -6.72614e-11 -1.05297e-09 2.51654e-09 2.09401e-09 1.38983e-09 4.04111e-10 
</DataArray>
<DataArray Name="Warping_Z" format="ascii" type="Float64">
0 0 0 0 0 0 0 0 0 0 0 0 0 0 0 0 0 0 0 0 0 0 0 0 0 0 0 0 0 0 0 0 0 0 0 0 0 0 0 0 0 0 0 0 0 0 0 0 0 0 0 0 0 0 0 0 0 0 0 0 0 0 0 0 0 0 0 0 0 0 0 0 0 0 0 0 0 0 0 0 0 0 0 0 0 0 0 0 0 0 0 0 0 0 0 0 0 0 0 0 0 0 0 0 0 0 0 0 0 0 0 0 0 0 0 0 0 0 0 0 0 
</DataArray>
</PointData>
<CellData>
<DataArray Name="MaterialId" format="ascii" type="Float64">
5 5 5 5 5 5 5 5 5 5 5 5 5 5 5 5 5 5 5 5 5 5 5 5 5 5 5 5 5 5 5 5 5 5 5 5 5 5 5 5 5 5 5 5 5 5 5 5 5 5 5 5 5 5 5 5 5 5 5 5 5 5 5 5 5 5 5 5 5 5 5 5 5 5 5 5 5 5 5 5 5 5 5 5 5 5 5 5 5 5 5 5 5 5 5 5 5 5 5 5 
</DataArray>
<DataArray Name="FiberAngle" format="ascii" type="Float64">
45 45 45 45 45 45 45 45 45 45 45 45 45 45 45 45 45 45 45 45 45 45 45 45 45 45 45 45 45 45 45 45 45 45 45 45 45 45 45 45 45 45 45 45 45 45 45 45 45 45 45 45 45 45 45 45 45 45 45 45 45 45 45 45 45 45 45 45 45 45 45 45 45 45 45 45 45 45 45 45 45 45 45 45 45 45 45 45 45 45 45 45 45 45 45 45 45 45 45 45 
</DataArray>
<DataArray Name="Strain_11" format="ascii" type="Float64">
1.87371e-07 1.87368e-07 1.87367e-07 1.87367e-07 1.87367e-07 1.45762e-07 1.4576e-07 1.45748e-07 1.45741e-07 1.45737e-07 1.0411e-07 1.04117e-07 1.04114e-07 1.04109e-07 1.04105e-07 6.24669e-08 6.24697e-08 6.24699e-08 6.2468e-08 6.24664e-08 2.08222e-08 2.08233e-08 2.08235e-08 2.08231e-08 2.08226e-08 -2.08222e-08 -2.08233e-08 -2.08235e-08 -2.08231e-08 -2.08226e-08 -6.24669e-08 -6.24697e-08 -6.24699e-08 -6.2468e-08 -6.24664e-08 -1.0411e-07 -1.04117e-07 -1.04114e-07 -1.04109e-07 -1.04105e-07 -1.45762e-07 -1.4576e-07 -1.45748e-07 -1.45741e-07 -1.45737e-07 -1.87371e-07 -1.87368e-07 -1.87367e-07 -1.87367e-07 -1.87367e-07 1.87367e-07 1.87367e-07 1.87367e-07 1.87368e-07 1.87371e-07 1.45737e-07 1.45741e-07 1.45748e-07 1.4576e-07 1.45762e-07 1.04105e-07 1.04109e-07 1.04114e-07 1.04117e-07 1.0411e-07 6.24664e-08 6.2468e-08 6.24699e-08 6.24697e-08 6.24669e-08 2.08226e-08 2.08231e-08 2.08235e-08 2.08233e-08 2.08222e-08 -2.08226e-08 -2.08231e-08 -2.08235e-08 -2.08233e-08 -2.08222e-08 -6.24664e-08 -6.2468e-08 -6.24699e-08 -6.24697e-08 -6.24669e-08 -1.04105e-07 -1.04109e-07 -1.04114e-07 -1.04117e-07 -1.0411e-07 -1.45737e-07 -1.45741e-07 -1.45748e-07 -1.4576e-07 -1.45762e-07 -1.87367e-07 -1.87367e-07 -1.87367e-07 -1.87368e-07 -1.87371e-07 
</DataArray>
<DataArray Name="Strain_22" format="ascii" type="Float64">
1.26767e-07 1.26751e-07 1.26754e-07 1.26756e-07 1.26757e-07 9.85986e-08 9.85714e-08 9.85742e-08 9.85793e-08 9.85819e-08 7.04306e-08 7.04122e-08 7.04063e-08 7.04079e-08 7.04097e-08 4.22582e-08 4.22486e-08 4.22437e-08 4.22429e-08 4.22434e-08 1.40861e-08 1.4083e-08 1.40812e-08 1.40807e-08 1.40808e-08 -1.40861e-08 -1.4083e-08 -1.40812e-08 -1.40807e-08 -1.40808e-08 -4.22582e-08 -4.22486e-08 -4.22437e-08 -4.22429e-08 -4.22434e-08 -7.04306e-08 -7.04122e-08 -7.04063e-08 -7.04079e-08 -7.04097e-08 -9.85986e-08 -9.85714e-08 -9.85742e-08 -9.85793e-08 -9.85819e-08 -1.26767e-07 -1.26751e-07 -1.26754e-07 -1.26756e-07 -1.26757e-07 1.26757e-07 1.26756e-07 1.26754e-07 1.26751e-07 1.26767e-07 9.85819e-08 9.85793e-08 9.85742e-08 9.85714e-08 9.85986e-08 7.04097e-08 7.04079e-08 7.04063e-08 7.04122e-08 7.04306e-08 4.22434e-08 4.22429e-08 4.22437e-08 4.22486e-08 4.22582e-08 1.40808e-08 1.40807e-08 1.40812e-08 1.4083e-08 1.40861e-08 -1.40808e-08 -1.40807e-08 -1.40812e-08 -1.4083e-08 -1.40861e-08 -4.22434e-08 -4.22429e-08 -4.22437e-08 -4.22486e-08 -4.22582e-08 -7.04097e-08 -7.04079e-08 -7.04063e-08 -7.04122e-08 -7.04306e-08 -9.85819e-08 -9.85793e-08 -9.85742e-08 -9.85714e-08 -9.85986e-08 -1.26757e-07 -1.26756e-07 -1.26754e-07 -1.26751e-07 -1.26767e-07 
</DataArray>
<DataArray Name="Strain_12" format="ascii" type="Float64">
-5.69759e-11 -5.60174e-11 -2.98164e-11 -1.3864e-11 -4.0129e-12 2.78647e-11 -8.35785e-12 -1.96224e-11 -1.35621e-11 -4.57142e-12 2.25395e-11 2.44869e-11 1.05683e-11 2.84542e-12 4.52132e-13 2.07837e-11 3.00742e-11 2.43603e-11 1.4106e-11 4.49131e-12 1.94802e-11 3.14339e-11 2.86207e-11 1.85083e-11 6.25293e-12 1.94802e-11 3.14339e-11 2.86207e-11 1.85083e-11 6.25293e-12 2.07837e-11 3.00742e-11 2.43603e-11 1.4106e-11 4.49131e-12 2.25395e-11 2.44869e-11 1.05683e-11 2.84542e-12 4.52132e-13 2.78647e-11 -8.35785e-12 -1.96224e-11 -1.35621e-11 -4.57142e-12 -5.69759e-11 -5.60174e-11 -2.98164e-11 -1.3864e-11 -4.0129e-12 4.0129e-12 1.3864e-11 2.98164e-11 5.60174e-11 5.69759e-11 4.57142e-12 1.35621e-11 1.96224e-11 8.35785e-12 -2.78647e-11 -4.52132e-13 -2.84542e-12 -1.05683e-11 -2.44869e-11 -2.25395e-11 -4.49131e-12 -1.4106e-11 -2.43603e-11 -3.00742e-11 -2.07837e-11 -6.25293e-12 -1.85083e-11 -2.86207e-11 -3.14339e-11 -1.94802e-11 -6.25293e-12 -1.85083e-11 -2.86207e-11 -3.14339e-11 -1.94802e-11 -4.49131e-12 -1.4106e-11 -2.43603e-11 -3.00742e-11 -2.07837e-11 -4.52132e-13 -2.84542e-12 -1.05683e-11 -2.44869e-11 -2.25395e-11 4.57142e-12 1.35621e-11 1.96224e-11 8.35785e-12 -2.78647e-11 4.0129e-12 1.3864e-11 2.98164e-11 5.60174e-11 5.69759e-11 
</DataArray>
<DataArray Name="Strain_13" format="ascii" type="Float64">
1.01001e-07 1.01048e-07 1.01071e-07 1.01084e-07 1.0109e-07 7.86188e-08 7.86023e-08 7.86097e-08 7.86164e-08 7.86199e-08 5.61507e-08 5.61489e-08 5.61503e-08 5.61537e-08 5.61558e-08 3.36918e-08 3.36895e-08 3.369e-08 3.36917e-08 3.3693e-08 1.12305e-08 1.123e-08 1.123e-08 1.12305e-08 1.12309e-08 -1.12305e-08 -1.123e-08 -1.123e-08 -1.12305e-08 -1.12309e-08 -3.36918e-08 -3.36895e-08 -3.369e-08 -3.36917e-08 -3.3693e-08 -5.61507e-08 -5.61489e-08 -5.61503e-08 -5.61537e-08 -5.61558e-08 -7.86188e-08 -7.86023e-08 -7.86097e-08 -7.86164e-08 -7.86199e-08 -1.01001e-07 -1.01048e-07 -1.01071e-07 -1.01084e-07 -1.0109e-07 1.0109e-07 1.01084e-07 1.01071e-07 1.01048e-07 1.01001e-07 7.86199e-08 7.86164e-08 7.86097e-08 7.86023e-08 7.86188e-08 5.61558e-08 5.61537e-08 5.61503e-08 5.61489e-08 5.61507e-08 3.3693e-08 3.36917e-08 3.369e-08 3.36895e-08 3.36918e-08 1.12309e-08 1.12305e-08 1.123e-08 1.123e-08 1.12305e-08 -1.12309e-08 -1.12305e-08 -1.123e-08 -1.123e-08 -1.12305e-08 -3.3693e-08 -3.36917e-08 -3.369e-08 -3.36895e-08 -3.36918e-08 -5.61558e-08 -5.61537e-08 -5.61503e-08 -5.61489e-08 -5.61507e-08 -7.86199e-08 -7.86164e-08 -7.86097e-08 -7.86023e-08 -7.86188e-08 -1.0109e-07 -1.01084e-07 -1.01071e-07 -1.01048e-07 -1.01001e-07 
</DataArray>
<DataArray Name="Strain_23" format="ascii" type="Float64">
1.00997e-07 7.86336e-08 5.61793e-08 3.37107e-08 1.12373e-08 1.01073e-07 7.86098e-08 5.61571e-08 3.36964e-08 1.12325e-08 1.01074e-07 7.86159e-08 5.61558e-08 3.36944e-08 1.12316e-08 1.01074e-07 7.86136e-08 5.61541e-08 3.36933e-08 1.12312e-08 1.01073e-07 7.86127e-08 5.61527e-08 3.36922e-08 1.12309e-08 1.01073e-07 7.86127e-08 5.61527e-08 3.36922e-08 1.12309e-08 1.01074e-07 7.86136e-08 5.61541e-08 3.36933e-08 1.12312e-08 1.01074e-07 7.86159e-08 5.61558e-08 3.36944e-08 1.12316e-08 1.01073e-07 7.86098e-08 5.61571e-08 3.36964e-08 1.12325e-08 1.00997e-07 7.86336e-08 5.61793e-08 3.37107e-08 1.12373e-08 -1.12373e-08 -3.37107e-08 -5.61793e-08 -7.86336e-08 -1.00997e-07 -1.12325e-08 -3.36964e-08 -5.61571e-08 -7.86098e-08 -1.01073e-07 -1.12316e-08 -3.36944e-08 -5.61558e-08 -7.86159e-08 -1.01074e-07 -1.12312e-08 -3.36933e-08 -5.61541e-08 -7.86136e-08 -1.01074e-07 -1.12309e-08 -3.36922e-08 -5.61527e-08 -7.86127e-08 -1.01073e-07 -1.12309e-08 -3.36922e-08 -5.61527e-08 -7.86127e-08 -1.01073e-07 -1.12312e-08 -3.36933e-08 -5.61541e-08 -7.86136e-08 -1.01074e-07 -1.12316e-08 -3.36944e-08 -5.61558e-08 -7.86159e-08 -1.01074e-07 -1.12325e-08 -3.36964e-08 -5.61571e-08 -7.86098e-08 -1.01073e-07 -1.12373e-08 -3.37107e-08 -5.61793e-08 -7.86336e-08 -1.00997e-07 
</DataArray>
<DataArray Name="Strain_33" format="ascii" type="Float64">
0.005 0.005 0.005 0.005 0.005 0.015 0.015 0.015 0.015 0.015 0.025 0.025 0.025 0.025 0.025 0.035 0.035 0.035 0.035 0.035 0.045 0.045 0.045 0.045 0.045 0.055 0.055 0.055 0.055 0.055 0.065 0.065 0.065 0.065 0.065 0.075 0.075 0.075 0.075 0.075 0.085 0.085 0.085 0.085 0.085 0.095 0.095 0.095 0.095 0.095 0.005 0.005 0.005 0.005 0.005 0.015 0.015 0.015 0.015 0.015 0.025 0.025 0.025 0.025 0.025 0.035 0.035 0.035 0.035 0.035 0.045 0.045 0.045 0.045 0.045 0.055 0.055 0.055 0.055 0.055 0.065 0.065 0.065 0.065 0.065 0.075 0.075 0.075 0.075 0.075 0.085 0.085 0.085 0.085 0.085 0.095 0.095 0.095 0.095 0.095 
</DataArray>
<DataArray Name="Stress_11" format="ascii" type="Float64">
6.15915e+07 6.15915e+07 6.15915e+07 6.15915e+07 6.15915e+07 1.84763e+08 1.84763e+08 1.84763e+08 1.84763e+08 1.84763e+08 3.07934e+08 3.07934e+08 3.07934e+08 3.07934e+08 3.07934e+08 4.31106e+08 4.31106e+08 4.31106e+08 4.31106e+08 4.31106e+08 5.54277e+08 5.54277e+08 5.54277e+08 5.54277e+08 5.54277e+08 6.77448e+08 6.77448e+08 6.77448e+08 6.77448e+08 6.77448e+08 8.0062e+08 8.0062e+08 8.0062e+08 8.0062e+08 8.0062e+08 9.23791e+08 9.23791e+08 9.23791e+08 9.23791e+08 9.23791e+08 1.04696e+09 1.04696e+09 1.04696e+09 1.04696e+09 1.04696e+09 1.17013e+09 1.17013e+09 1.17013e+09 1.17013e+09 1.17013e+09 6.15915e+07 6.15915e+07 6.15915e+07 6.15915e+07 6.15915e+07 1.84763e+08 1.84763e+08 1.84763e+08 1.84763e+08 1.84763e+08 3.07934e+08 3.07934e+08 3.07934e+08 3.07934e+08 3.07934e+08 4.31106e+08 4.31106e+08 4.31106e+08 4.31106e+08 4.31106e+08 5.54277e+08 5.54277e+08 5.54277e+08 5.54277e+08 5.54277e+08 6.77448e+08 6.77448e+08 6.77448e+08 6.77448e+08 6.77448e+08 8.0062e+08 8.0062e+08 8.0062e+08 8.0062e+08 8.0062e+08 9.23791e+08 9.23791e+08 9.23791e+08 9.23791e+08 9.23791e+08 1.04696e+09 1.04696e+09 1.04696e+09 1.04696e+09 1.04696e+09 1.17013e+09 1.17013e+09 1.17013e+09 1.17013e+09 1.17013e+09 
</DataArray>
<DataArray Name="Stress_22" format="ascii" type="Float64">
2.58457e+07 2.58457e+07 2.58457e+07 2.58457e+07 2.58457e+07 7.75315e+07 7.75315e+07 7.75315e+07 7.75315e+07 7.75315e+07 1.29217e+08 1.29217e+08 1.29217e+08 1.29217e+08 1.29217e+08 1.80903e+08 1.80903e+08 1.80903e+08 1.80903e+08 1.80903e+08 2.32589e+08 2.32589e+08 2.32589e+08 2.32589e+08 2.32589e+08 2.84275e+08 2.84275e+08 2.84275e+08 2.84275e+08 2.84275e+08 3.35961e+08 3.35961e+08 3.35961e+08 3.35961e+08 3.35961e+08 3.87646e+08 3.87646e+08 3.87646e+08 3.87646e+08 3.87646e+08 4.39332e+08 4.39332e+08 4.39332e+08 4.39332e+08 4.39332e+08 4.91018e+08 4.91018e+08 4.91018e+08 4.91018e+08 4.91018e+08 2.58457e+07 2.58457e+07 2.58457e+07 2.58457e+07 2.58457e+07 7.75315e+07 7.75315e+07 7.75315e+07 7.75315e+07 7.75315e+07 1.29217e+08 1.29217e+08 1.29217e+08 1.29217e+08 1.29217e+08 1.80903e+08 1.80903e+08 1.80903e+08 1.80903e+08 1.80903e+08 2.32589e+08 2.32589e+08 2.32589e+08 2.32589e+08 2.32589e+08 2.84275e+08 2.84275e+08 2.84275e+08 2.84275e+08 2.84275e+08 3.35961e+08 3.35961e+08 3.35961e+08 3.35961e+08 3.35961e+08 3.87646e+08 3.87646e+08 3.87646e+08 3.87646e+08 3.87646e+08 4.39332e+08 4.39332e+08 4.39332e+08 4.39332e+08 4.39332e+08 4.91018e+08 4.91018e+08 4.91018e+08 4.91018e+08 4.91018e+08 
</DataArray>
<DataArray Name="Stress_12" format="ascii" type="Float64">
21.4483 16.6549 11.9376 7.17847 2.39522 21.7857 16.8302 11.9714 7.17654 2.39206 21.7657 16.9558 12.0854 7.23822 2.41089 21.759 16.9765 12.1373 7.28061 2.4261 21.7539 16.9814 12.1531 7.29704 2.43269 21.7539 16.9814 12.1531 7.29704 2.43269 21.759 16.9765 12.1373 7.28061 2.4261 21.7657 16.9558 12.0854 7.23822 2.41089 21.7857 16.8302 11.9714 7.17654 2.39206 21.4483 16.6549 11.9376 7.17847 2.39522 -2.39522 -7.17847 -11.9376 -16.6549 -21.4483 -2.39206 -7.17654 -11.9714 -16.8302 -21.7857 -2.41089 -7.23822 -12.0854 -16.9558 -21.7657 -2.4261 -7.28061 -12.1373 -16.9765 -21.759 -2.43269 -7.29704 -12.1531 -16.9814 -21.7539 -2.43269 -7.29704 -12.1531 -16.9814 -21.7539 -2.4261 -7.28061 -12.1373 -16.9765 -21.759 -2.41089 -7.23822 -12.0854 -16.9558 -21.7657 -2.39206 -7.17654 -11.9714 -16.8302 -21.7857 -2.39522 -7.17847 -11.9376 -16.6549 -21.4483 
</DataArray>
<DataArray Name="Stress_13" format="ascii" type="Float64">
3.78885e+07 3.78885e+07 3.78885e+07 3.78885e+07 3.78885e+07 1.1366e+08 1.1366e+08 1.1366e+08 1.1366e+08 1.1366e+08 1.89431e+08 1.89431e+08 1.89431e+08 1.89431e+08 1.89431e+08 2.65202e+08 2.65202e+08 2.65202e+08 2.65202e+08 2.65202e+08 3.40974e+08 3.40974e+08 3.40974e+08 3.40974e+08 3.40974e+08 4.16745e+08 4.16745e+08 4.16745e+08 4.16745e+08 4.16745e+08 4.92516e+08 4.92516e+08 4.92516e+08 4.92516e+08 4.92516e+08 5.68288e+08 5.68288e+08 5.68288e+08 5.68288e+08 5.68288e+08 6.44059e+08 6.44059e+08 6.44059e+08 6.44059e+08 6.44059e+08 7.1983e+08 7.1983e+08 7.1983e+08 7.1983e+08 7.1983e+08 3.78885e+07 3.78885e+07 3.78885e+07 3.78885e+07 3.78885e+07 1.1366e+08 1.1366e+08 1.1366e+08 1.1366e+08 1.1366e+08 1.89431e+08 1.89431e+08 1.89431e+08 1.89431e+08 1.89431e+08 2.65202e+08 2.65202e+08 2.65202e+08 2.65202e+08 2.65202e+08 3.40974e+08 3.40974e+08 3.40974e+08 3.40974e+08 3.40974e+08 4.16745e+08 4.16745e+08 4.16745e+08 4.16745e+08 4.16745e+08 4.92516e+08 4.92516e+08 4.92516e+08 4.92516e+08 4.92516e+08 5.68288e+08 5.68288e+08 5.68288e+08 5.68288e+08 5.68288e+08 6.44059e+08 6.44059e+08 6.44059e+08 6.44059e+08 6.44059e+08 7.1983e+08 7.1983e+08 7.1983e+08 7.1983e+08 7.1983e+08 
</DataArray>
<DataArray Name="Stress_23" format="ascii" type="Float64">
382.314 297.656 212.66 127.609 42.5381 382.619 297.576 212.578 127.555 42.5195 382.62 297.606 212.58 127.551 42.5173 382.62 297.598 212.577 127.549 42.5168 382.617 297.595 212.572 127.546 42.5158 382.617 297.595 212.572 127.546 42.5158 382.62 297.598 212.577 127.549 42.5168 382.62 297.606 212.58 127.551 42.5173 382.619 297.576 212.578 127.555 42.5195 382.314 297.656 212.66 127.609 42.5381 -42.5381 -127.609 -212.66 -297.656 -382.314 -42.5195 -127.555 -212.578 -297.576 -382.619 -42.5173 -127.551 -212.58 -297.606 -382.62 -42.5168 -127.549 -212.577 -297.598 -382.62 -42.5158 -127.546 -212.572 -297.595 -382.617 -42.5158 -127.546 -212.572 -297.595 -382.617 -42.5168 -127.549 -212.577 -297.598 -382.62 -42.5173 -127.551 -212.58 -297.606 -382.62 -42.5195 -127.555 -212.578 -297.576 -382.619 -42.5381 -127.609 -212.66 -297.656 -382.314 
</DataArray>
<DataArray Name="Stress_33" format="ascii" type="Float64">
1.0159e+08 1.0159e+08 1.0159e+08 1.0159e+08 1.0159e+08 3.04762e+08 3.04762e+08 3.04762e+08 3.04762e+08 3.04762e+08 5.07933e+08 5.07933e+08 5.07933e+08 5.07933e+08 5.07933e+08 7.11105e+08 7.11105e+08 7.11105e+08 7.11105e+08 7.11105e+08 9.14277e+08 9.14277e+08 9.14277e+08 9.14277e+08 9.14277e+08 1.11745e+09 1.11745e+09 1.11745e+09 1.11745e+09 1.11745e+09 1.32062e+09 1.32062e+09 1.32062e+09 1.32062e+09 1.32062e+09 1.52379e+09 1.52379e+09 1.52379e+09 1.52379e+09 1.52379e+09 1.72696e+09 1.72696e+09 1.72696e+09 1.72696e+09 1.72696e+09 1.93014e+09 1.93014e+09 1.93014e+09 1.93014e+09 1.93014e+09 1.0159e+08 1.0159e+08 1.0159e+08 1.0159e+08 1.0159e+08 3.04762e+08 3.04762e+08 3.04762e+08 3.04762e+08 3.04762e+08 5.07933e+08 5.07933e+08 5.07933e+08 5.07933e+08 5.07933e+08 7.11105e+08 7.11105e+08 7.11105e+08 7.11105e+08 7.11105e+08 9.14277e+08 9.14277e+08 9.14277e+08 9.14277e+08 9.14277e+08 1.11745e+09 1.11745e+09 1.11745e+09 1.11745e+09 1.11745e+09 1.32062e+09 1.32062e+09 1.32062e+09 1.32062e+09 1.32062e+09 1.52379e+09 1.52379e+09 1.52379e+09 1.52379e+09 1.52379e+09 1.72696e+09 1.72696e+09 1.72696e+09 1.72696e+09 1.72696e+09 1.93014e+09 1.93014e+09 1.93014e+09 1.93014e+09 1.93014e+09 
</DataArray>
</CellData>
<Points>
<DataArray NumberOfComponents="3" format="ascii" type="Float64">
0 0 0 0 0.05 0 0 0.01 0 0 0.02 0 0 0.03 0 0 0.04 0 0.05 0.05 0 0.01 0.05 0 0.02 0.05 0 0.03 0.05 0 0.04 0.05 0 0.05 0 0 0.05 0.04 0 0.05 0.03 0 0.05 0.02 0 0.05 0.01 0 0.04 0 0 0.03 0 0 0.02 0 0 0.01 0 0 0.01 0.01 0 0.01 0.02 0 0.01 0.03 0 0.01 0.04 0 0.02 0.01 0 0.02 0.02 0 0.02 0.03 0 0.02 0.04 0 0.03 0.01 0 0.03 0.02 0 0.03 0.03 0 0.03 0.04 0 0.04 0.01 0 0.04 0.02 0 0.04 0.03 0 0.04 0.04 0 0 0.1 0 0 0.06 0 0 0.07 0 0 0.08 0 0 0.09 0 0.05 0.1 0 0.01 0.1 0 0.02 0.1 0 0.03 0.1 0 0.04 0.1 0 0.05 0.09 0 0.05 0.08 0 0.05 0.07 0 0.05 0.06 0 0.01 0.06 0 0.01 0.07 0 0.01 0.08 0 0.01 0.09 0 0.02 0.06 0 0.02 0.07 0 0.02 0.08 0 0.02 0.09 0 0.03 0.06 0 0.03 0.07 0 0.03 0.08 0 0.03 0.09 0 0.04 0.06 0 0.04 0.07 0 0.04 0.08 0 0.04 0.09 0 0.1 0.05 0 0.06 0.05 0 0.07 0.05 0 0.08 0.05 0 0.09 0.05 0 0.1 0 0 0.1 0.04 0 0.1 0.03 0 0.1 0.02 0 0.1 0.01 0 0.09 0 0 0.08 0 0 0.07 0 0 0.06 0 0 0.06 0.01 0 0.06 0.02 0 0.06 0.03 0 0.06 0.04 0 0.07 0.01 0 0.07 0.02 0 0.07 0.03 0 0.07 0.04 0 0.08 0.01 0 0.08 0.02 0 0.08 0.03 0 0.08 0.04 0 0.09 0.01 0 0.09 0.02 0 0.09 0.03 0 0.09 0.04 0 0.1 0.1 0 0.06 0.1 0 0.07 0.1 0 0.08 0.1 0 0.09 0.1 0 0.1 0.09 0 0.1 0.08 0 0.1 0.07 0 0.1 0.06 0 0.06 0.06 0 0.06 0.07 0 0.06 0.08 0 0.06 0.09 0 0.07 0.06 0 0.07 0.07 0 0.07 0.08 0 0.07 0.09 0 0.08 0.06 0 0.08 0.07 0 0.08 0.08 0 0.08 0.09 0 0.09 0.06 0 0.09 0.07 0 0.09 0.08 0 0.09 0.09 0 
</DataArray>
</Points>
<Cells>
<DataArray Name="connectivity" format="ascii" type="Int64">
0 19 20 2 19 18 24 20 18 17 28 24 17 16 32 28 16 11 15 32 2 20 21 3 20 24 25 21 24 28 29 25 28 32 33 29 32 15 14 33 3 21 22 4 21 25 26 22 25 29 30 26 29 33 34 30 33 14 13 34 4 22 23 5 22 26 27 23 26 30 31 27 30 34 35 31 34 13 12 35 5 23 7 1 23 27 8 7 27 31 9 8 31 35 10 9 35 12 6 10 1 7 50 37 7 8 54 50 8 9 58 54 9 10 62 58 10 6 49 62 37 50 51 38 50 54 55 51 54 58 59 55 58 62 63 59 62 49 48 63 38 51 52 39 51 55 56 52 55 59 60 56 59 63 64 60 63 48 47 64 39 52 53 40 52 56 57 53 56 60 61 57 60 64 65 61 64 47 46 65 40 53 42 36 53 57 43 42 57 61 44 43 61 65 45 44 65 46 41 45 11 79 80 15 79 78 84 80 78 77 88 84 77 76 92 88 76 71 75 92 15 80 81 14 80 84 85 81 84 88 89 85 88 92 93 89 92 75 74 93 14 81 82 13 81 85 86 82 85 89 90 86 89 93 94 90 93 74 73 94 13 82 83 12 82 86 87 83 86 90 91 87 90 94 95 91 94 73 72 95 12 83 67 6 83 87 68 67 87 91 69 68 91 95 70 69 95 72 66 70 6 67 105 49 67 68 109 105 68 69 113 109 69 70 117 113 70 66 104 117 49 105 106 48 105 109 110 106 109 113 114 110 113 117 118 114 117 104 103 118 48 106 107 47 106 110 111 107 110 114 115 111 114 118 119 115 118 103 102 119 47 107 108 46 107 111 112 108 111 115 116 112 115 119 120 116 119 102 101 120 46 108 97 41 108 112 98 97 112 116 99 98 116 120 100 99 120 101 96 100 
</DataArray>
<DataArray Name="offsets" format="ascii" type="Int64">
4 8 12 16 20 24 28 32 36 40 44 48 52 56 60 64 68 72 76 80 84 88 92 96 100 104 108 112 116 120 124 128 132 136 140 144 148 152 156 160 164 168 172 176 180 184 188 192 196 200 204 208 212 216 220 224 228 232 236 240 244 248 252 256 260 264 268 272 276 280 284 288 292 296 300 304 308 312 316 320 324 328 332 336 340 344 348 352 356 360 364 368 372 376 380 384 388 392 396 400 
</DataArray>
<DataArray Name="types" format="ascii" type="Int8">
9 9 9 9 9 9 9 9 9 9 9 9 9 9 9 9 9 9 9 9 9 9 9 9 9 9 9 9 9 9 9 9 9 9 9 9 9 9 9 9 9 9 9 9 9 9 9 9 9 9 9 9 9 9 9 9 9 9 9 9 9 9 9 9 9 9 9 9 9 9 9 9 9 9 9 9 9 9 9 9 9 9 9 9 9 9 9 9 9 9 9 9 9 9 9 9 9 9 9 9 
</DataArray>
</Cells>
</Piece>
</UnstructuredGrid>
</VTKFile>
