<?xml version="1.0"?>
<VTKFile byte_order="LittleEndian" type="UnstructuredGrid" version="0.1">
<UnstructuredGrid>
<Piece NumberOfCells="100" NumberOfPoints="121">
<PointData>
<DataArray Name="Warping_X" format="ascii" type="Float64">
6.41446e-09 -2.99507e-24 4.58348e-09 2.98112e-09 1.73201e-09 7.828e-10 -1.13344e-25 -1.95741e-24 -1.80075e-24 -1.09321e-24 -5.18538e-25 1.57752e-24 -3.76292e-25 -2.00775e-24 -2.49644e-24 -1.59054e-24 1.86341e-09 3.60239e-09 5.0864e-09 6.14582e-09 4.54164e-09 2.97248e-09 1.72749e-09 7.80337e-10 3.91496e-09 2.62689e-09 1.54529e-09 7.02454e-10 2.83561e-09 1.95166e-09 1.16507e-09 5.33587e-10 1.48251e-09 1.03614e-09 6.25657e-10 2.88193e-10 -6.41446e-09 -7.828e-10 -1.73201e-09 -2.98112e-09 -4.58348e-09 4.91465e-24 -6.14582e-09 -5.0864e-09 -3.60239e-09 -1.86341e-09 4.89618e-24 2.66286e-24 1.09458e-24 4.85359e-25 -7.80337e-10 -1.72749e-09 -2.97248e-09 -4.54164e-09 -7.02454e-10 -1.54529e-09 -2.62689e-09 -3.91496e-09 -5.33587e-10 -1.16507e-09 -1.95166e-09 -2.83561e-09 -2.88193e-10 -6.25657e-10 -1.03614e-09 -1.48251e-09 4.01358e-25 5.9025e-25 1.20787e-24 1.99756e-24 7.67431e-25 -6.41446e-09 -7.828e-10 -1.73201e-09 -2.98112e-09 -4.58348e-09 -6.14582e-09 -5.0864e-09 -3.60239e-09 -1.86341e-09 -1.48251e-09 -1.03614e-09 -6.25657e-10 -2.88193e-10 -2.83561e-09 -1.95166e-09 -1.16507e-09 -5.33587e-10 -3.91496e-09 -2.62689e-09 -1.54529e-09 -7.02454e-10 -4.54164e-09 -2.97248e-09 -1.72749e-09 -7.80337e-10 6.41446e-09 1.86341e-09 3.60239e-09 5.0864e-09 6.14582e-09 4.58348e-09 2.98112e-09 1.73201e-09 7.828e-10 2.88193e-10 6.25657e-10 1.03614e-09 1.48251e-09 5.33587e-10 1.16507e-09 1.95166e-09 2.83561e-09 7.02454e-10 1.54529e-09 2.62689e-09 3.91496e-09 7.80337e-10 1.72749e-09 2.97248e-09 4.54164e-09 
</DataArray>
<DataArray Name="Warping_Y" format="ascii" type="Float64">
-3.98774e-09 -2.06231e-09 -3.47693e-09 -2.97993e-09 -2.51058e-09 -2.18044e-09 3.20929e-09 -5.48019e-10 9.51179e-10 2.1656e-09 2.94296e-09 1.7515e-10 3.11512e-09 2.81183e-09 2.24697e-09 1.36925e-09 1.58522e-11 -4.56231e-10 -1.23599e-09 -2.3343e-09 -1.66897e-09 -1.18762e-09 -8.39551e-10 -6.22277e-10 -3.17817e-10 2.93012e-10 6.73869e-10 8.83918e-10 6.16928e-10 1.37256e-09 1.84024e-09 2.08841e-09 1.18034e-09 2.02712e-09 2.56616e-09 2.85378e-09 -3.98774e-09 -2.18044e-09 -2.51058e-09 -2.97993e-09 -3.47693e-09 1.7515e-10 -2.3343e-09 -1.23599e-09 -4.56231e-10 1.58522e-11 1.36925e-09 2.24697e-09 2.81183e-09 3.11512e-09 -6.22277e-10 -8.39551e-10 -1.18762e-09 -1.66897e-09 8.83918e-10 6.73869e-10 2.93012e-10 -3.17817e-10 2.08841e-09 1.84024e-09 1.37256e-09 6.16928e-10 2.85378e-09 2.56616e-09 2.02712e-09 1.18034e-09 -2.06231e-09 2.94296e-09 2.1656e-09 9.51179e-10 -5.48019e-10 -3.98774e-09 -2.18044e-09 -2.51058e-09 -2.97993e-09 -3.47693e-09 -2.3343e-09 -1.23599e-09 -4.56231e-10 1.58522e-11 1.18034e-09 2.02712e-09 2.56616e-09 2.85378e-09 6.16928e-10 1.37256e-09 1.84024e-09 2.08841e-09 -3.17817e-10 2.93012e-10 6.73869e-10 8.83918e-10 -1.66897e-09 -1.18762e-09 -8.39551e-10 -6.22277e-10 -3.98774e-09 1.58522e-11 -4.56231e-10 -1.23599e-09 -2.3343e-09 -3.47693e-09 -2.97993e-09 -2.51058e-09 -2.18044e-09 2.85378e-09 2.56616e-09 2.02712e-09 1.18034e-09 2.08841e-09 1.84024e-09 1.37256e-09 6.16928e-10 8.83918e-10 6.73869e-10 2.93012e-10 -3.17817e-10 -6.22277e-10 -8.39551e-10 -1.18762e-09 -1.66897e-09 
</DataArray>
<DataArray Name="Warping_Z" format="ascii" type="Float64">
0 0 0 0 0 0 0 0 0 0 0 0 0 0 0 0 0 0 0 0 0 0 0 0 0 0 0 0 0 0 0 0 0 0 0 0 0 0 0 0 0 0 0 0 0 0 0 0 0 0 0 0 0 0 0 0 0 0 0 0 0 0 0 0 0 0 0 0 0 0 0 0 0 0 0 0 0 0 0 0 0 0 0 0 0 0 0 0 0 0 0 0 0 0 0 0 0 0 0 0 0 0 0 0 0 0 0 0 0 0 0 0 0 0 0 0 0 0 0 0 0 
</DataArray>
</PointData>
<CellData>
<DataArray Name="MaterialId" format="ascii" type="Float64">
5 5 5 5 5 5 5 5 5 5 5 5 5 5 5 5 5 5 5 5 5 5 5 5 5 5 5 5 5 5 5 5 5 5 5 5 5 5 5 5 5 5 5 5 5 5 5 5 5 5 5 5 5 5 5 5 5 5 5 5 5 5 5 5 5 5 5 5 5 5 5 5 5 5 5 5 5 5 5 5 5 5 5 5 5 5 5 5 5 5 5 5 5 5 5 5 5 5 5 5 
</DataArray>
<DataArray Name="FiberAngle" format="ascii" type="Float64">
45 45 45 45 45 45 45 45 45 45 45 45 45 45 45 45 45 45 45 45 45 45 45 45 45 45 45 45 45 45 45 45 45 45 45 45 45 45 45 45 45 45 45 45 45 45 45 45 45 45 45 45 45 45 45 45 45 45 45 45 45 45 45 45 45 45 45 45 45 45 45 45 45 45 45 45 45 45 45 45 45 45 45 45 45 45 45 45 45 45 45 45 45 45 45 45 45 45 45 45 
</DataArray>
<DataArray Name="Strain_11" format="ascii" type="Float64">
-1.5524e-08 -8.43045e-08 -1.28169e-07 -1.54604e-07 -1.67296e-07 -2.52415e-09 -4.86133e-08 -8.77294e-08 -1.13431e-07 -1.25932e-07 -6.58086e-10 -2.63891e-08 -5.27726e-08 -7.2747e-08 -8.30897e-08 -3.49271e-10 -1.30037e-08 -2.74544e-08 -3.92406e-08 -4.56925e-08 -1.23131e-10 -3.89415e-09 -8.44335e-09 -1.22697e-08 -1.44097e-08 1.23131e-10 3.89415e-09 8.44335e-09 1.22697e-08 1.44097e-08 3.49271e-10 1.30037e-08 2.74544e-08 3.92406e-08 4.56925e-08 6.58086e-10 2.63891e-08 5.27726e-08 7.2747e-08 8.30897e-08 2.52415e-09 4.86133e-08 8.77294e-08 1.13431e-07 1.25932e-07 1.5524e-08 8.43045e-08 1.28169e-07 1.54604e-07 1.67296e-07 -1.67296e-07 -1.54604e-07 -1.28169e-07 -8.43045e-08 -1.5524e-08 -1.25932e-07 -1.13431e-07 -8.77294e-08 -4.86133e-08 -2.52415e-09 -8.30897e-08 -7.2747e-08 -5.27726e-08 -2.63891e-08 -6.58086e-10 -4.56925e-08 -3.92406e-08 -2.74544e-08 -1.30037e-08 -3.49271e-10 -1.44097e-08 -1.22697e-08 -8.44335e-09 -3.89415e-09 -1.23131e-10 1.44097e-08 1.22697e-08 8.44335e-09 3.89415e-09 1.23131e-10 4.56925e-08 3.92406e-08 2.74544e-08 1.30037e-08 3.49271e-10 8.30897e-08 7.2747e-08 5.27726e-08 2.63891e-08 6.58086e-10 1.25932e-07 1.13431e-07 8.77294e-08 4.86133e-08 2.52415e-09 1.67296e-07 1.54604e-07 1.28169e-07 8.43045e-08 1.5524e-08 
</DataArray>
<DataArray Name="Strain_22" format="ascii" type="Float64">
5.88072e-08 7.91751e-08 9.95666e-08 1.11882e-07 1.17929e-07 4.89174e-08 5.4609e-08 6.83232e-08 8.01207e-08 8.6225e-08 4.08711e-08 3.64463e-08 4.24265e-08 5.0336e-08 5.51951e-08 2.73705e-08 2.13662e-08 2.2911e-08 2.67894e-08 2.95456e-08 9.61925e-09 7.07593e-09 7.22294e-09 8.31905e-09 9.16759e-09 -9.61925e-09 -7.07593e-09 -7.22294e-09 -8.31905e-09 -9.16759e-09 -2.73705e-08 -2.13662e-08 -2.2911e-08 -2.67894e-08 -2.95456e-08 -4.08711e-08 -3.64463e-08 -4.24265e-08 -5.0336e-08 -5.51951e-08 -4.89174e-08 -5.4609e-08 -6.83232e-08 -8.01207e-08 -8.6225e-08 -5.88072e-08 -7.91751e-08 -9.95666e-08 -1.11882e-07 -1.17929e-07 1.17929e-07 1.11882e-07 9.95666e-08 7.91751e-08 5.88072e-08 8.6225e-08 8.01207e-08 6.83232e-08 5.4609e-08 4.89174e-08 5.51951e-08 5.0336e-08 4.24265e-08 3.64463e-08 4.08711e-08 2.95456e-08 2.67894e-08 2.2911e-08 2.13662e-08 2.73705e-08 9.16759e-09 8.31905e-09 7.22294e-09 7.07593e-09 9.61925e-09 -9.16759e-09 -8.31905e-09 -7.22294e-09 -7.07593e-09 -9.61925e-09 -2.95456e-08 -2.67894e-08 -2.2911e-08 -2.13662e-08 -2.73705e-08 -5.51951e-08 -5.0336e-08 -4.24265e-08 -3.64463e-08 -4.08711e-08 -8.6225e-08 -8.01207e-08 -6.83232e-08 -5.4609e-08 -4.89174e-08 -1.17929e-07 -1.11882e-07 -9.95666e-08 -7.91751e-08 -5.88072e-08 
</DataArray>
<DataArray Name="Strain_12" format="ascii" type="Float64">
1.3123e-09 -1.63079e-08 -1.11857e-08 -5.60978e-09 -1.63484e-09 2.14373e-08 -1.27241e-09 -7.88639e-09 -5.61793e-09 -1.88017e-09 4.84615e-08 3.33731e-08 1.8887e-08 9.17078e-09 2.7519e-09 6.66415e-08 6.14813e-08 4.48264e-08 2.61174e-08 8.47696e-09 7.54659e-08 7.61301e-08 5.91437e-08 3.60476e-08 1.19736e-08 7.54659e-08 7.61301e-08 5.91437e-08 3.60476e-08 1.19736e-08 6.66415e-08 6.14813e-08 4.48264e-08 2.61174e-08 8.47696e-09 4.84615e-08 3.33731e-08 1.8887e-08 9.17078e-09 2.7519e-09 2.14373e-08 -1.27241e-09 -7.88639e-09 -5.61793e-09 -1.88017e-09 1.3123e-09 -1.63079e-08 -1.11857e-08 -5.60978e-09 -1.63484e-09 1.63484e-09 5.60978e-09 1.11857e-08 1.63079e-08 -1.3123e-09 1.88017e-09 5.61793e-09 7.88639e-09 1.27241e-09 -2.14373e-08 -2.7519e-09 -9.17078e-09 -1.8887e-08 -3.33731e-08 -4.84615e-08 -8.47696e-09 -2.61174e-08 -4.48264e-08 -6.14813e-08 -6.66415e-08 -1.19736e-08 -3.60476e-08 -5.91437e-08 -7.61301e-08 -7.54659e-08 -1.19736e-08 -3.60476e-08 -5.91437e-08 -7.61301e-08 -7.54659e-08 -8.47696e-09 -2.61174e-08 -4.48264e-08 -6.14813e-08 -6.66415e-08 -2.7519e-09 -9.17078e-09 -1.8887e-08 -3.33731e-08 -4.84615e-08 1.88017e-09 5.61793e-09 7.88639e-09 1.27241e-09 -2.14373e-08 1.63484e-09 5.60978e-09 1.11857e-08 1.63079e-08 -1.3123e-09 
</DataArray>
<DataArray Name="Strain_13" format="ascii" type="Float64">
-0.00500046 -0.00500027 -0.00500015 -0.00500008 -0.00500004 -0.0150004 -0.0150003 -0.0150002 -0.0150001 -0.0150001 -0.0250003 -0.0250002 -0.0250002 -0.0250001 -0.0250001 -0.0350002 -0.0350001 -0.0350001 -0.0350001 -0.0350001 -0.0450001 -0.045 -0.045 -0.045 -0.045 -0.0549999 -0.055 -0.055 -0.055 -0.055 -0.0649998 -0.0649999 -0.0649999 -0.0649999 -0.0649999 -0.0749997 -0.0749998 -0.0749998 -0.0749999 -0.0749999 -0.0849996 -0.0849997 -0.0849998 -0.0849999 -0.0849999 -0.0949995 -0.0949997 -0.0949998 -0.0949999 -0.095 -0.00500004 -0.00500008 -0.00500015 -0.00500027 -0.00500046 -0.0150001 -0.0150001 -0.0150002 -0.0150003 -0.0150004 -0.0250001 -0.0250001 -0.0250002 -0.0250002 -0.0250003 -0.0350001 -0.0350001 -0.0350001 -0.0350001 -0.0350002 -0.045 -0.045 -0.045 -0.045 -0.0450001 -0.055 -0.055 -0.055 -0.055 -0.0549999 -0.0649999 -0.0649999 -0.0649999 -0.0649999 -0.0649998 -0.0749999 -0.0749999 -0.0749998 -0.0749998 -0.0749997 -0.0849999 -0.0849999 -0.0849998 -0.0849997 -0.0849996 -0.095 -0.0949999 -0.0949998 -0.0949997 -0.0949995 
</DataArray>
<DataArray Name="Strain_23" format="ascii" type="Float64">
0.00500033 0.0150003 0.0250002 0.0350001 0.0450001 0.00499997 0.015 0.0250001 0.035 0.045 0.00499978 0.0149999 0.0249999 0.035 0.045 0.00499968 0.0149998 0.0249999 0.0349999 0.045 0.00499963 0.0149997 0.0249998 0.0349999 0.045 0.00499963 0.0149997 0.0249998 0.0349999 0.045 0.00499968 0.0149998 0.0249999 0.0349999 0.045 0.00499978 0.0149999 0.0249999 0.035 0.045 0.00499997 0.015 0.0250001 0.035 0.045 0.00500033 0.0150003 0.0250002 0.0350001 0.0450001 0.0549999 0.0649999 0.0749998 0.0849997 0.0949997 0.055 0.065 0.0749999 0.085 0.095 0.055 0.065 0.0750001 0.0850001 0.0950002 0.055 0.0650001 0.0750001 0.0850002 0.0950003 0.055 0.0650001 0.0750002 0.0850003 0.0950004 0.055 0.0650001 0.0750002 0.0850003 0.0950004 0.055 0.0650001 0.0750001 0.0850002 0.0950003 0.055 0.065 0.0750001 0.0850001 0.0950002 0.055 0.065 0.0749999 0.085 0.095 0.0549999 0.0649999 0.0749998 0.0849997 0.0949997 
</DataArray>
<DataArray Name="Strain_33" format="ascii" type="Float64">
0 0 0 0 0 0 0 0 0 0 0 0 0 0 0 0 0 0 0 0 0 0 0 0 0 0 0 0 0 0 0 0 0 0 0 0 0 0 0 0 0 0 0 0 0 0 0 0 0 0 0 0 0 0 0 0 0 0 0 0 0 0 0 0 0 0 0 0 0 0 0 0 0 0 0 0 0 0 0 0 0 0 0 0 0 0 0 0 0 0 0 0 0 0 0 0 0 0 0 0 
</DataArray>
<DataArray Name="Stress_11" format="ascii" type="Float64">
-3.78894e+07 -3.78893e+07 -3.78892e+07 -3.78891e+07 -3.7889e+07 -1.13661e+08 -1.13661e+08 -1.13661e+08 -1.13661e+08 -1.13661e+08 -1.89432e+08 -1.89432e+08 -1.89432e+08 -1.89432e+08 -1.89432e+08 -2.65203e+08 -2.65203e+08 -2.65203e+08 -2.65203e+08 -2.65203e+08 -3.40974e+08 -3.40974e+08 -3.40974e+08 -3.40974e+08 -3.40974e+08 -4.16745e+08 -4.16745e+08 -4.16745e+08 -4.16745e+08 -4.16745e+08 -4.92516e+08 -4.92516e+08 -4.92516e+08 -4.92516e+08 -4.92516e+08 -5.68287e+08 -5.68287e+08 -5.68287e+08 -5.68287e+08 -5.68287e+08 -6.44058e+08 -6.44058e+08 -6.44058e+08 -6.44058e+08 -6.44058e+08 -7.19829e+08 -7.19829e+08 -7.19829e+08 -7.19829e+08 -7.1983e+08 -3.7889e+07 -3.78891e+07 -3.78892e+07 -3.78893e+07 -3.78894e+07 -1.13661e+08 -1.13661e+08 -1.13661e+08 -1.13661e+08 -1.13661e+08 -1.89432e+08 -1.89432e+08 -1.89432e+08 -1.89432e+08 -1.89432e+08 -2.65203e+08 -2.65203e+08 -2.65203e+08 -2.65203e+08 -2.65203e+08 -3.40974e+08 -3.40974e+08 -3.40974e+08 -3.40974e+08 -3.40974e+08 -4.16745e+08 -4.16745e+08 -4.16745e+08 -4.16745e+08 -4.16745e+08 -4.92516e+08 -4.92516e+08 -4.92516e+08 -4.92516e+08 -4.92516e+08 -5.68287e+08 -5.68287e+08 -5.68287e+08 -5.68287e+08 -5.68287e+08 -6.44058e+08 -6.44058e+08 -6.44058e+08 -6.44058e+08 -6.44058e+08 -7.1983e+08 -7.19829e+08 -7.19829e+08 -7.19829e+08 -7.19829e+08 
</DataArray>
<DataArray Name="Stress_22" format="ascii" type="Float64">
879581 879447 879454 879458 879462 2.63721e+06 2.63702e+06 2.63697e+06 2.63698e+06 2.63698e+06 4.39479e+06 4.39459e+06 4.39452e+06 4.39451e+06 4.39451e+06 6.1523e+06 6.15215e+06 6.15209e+06 6.15207e+06 6.15207e+06 7.90975e+06 7.9097e+06 7.90967e+06 7.90967e+06 7.90966e+06 9.66718e+06 9.66724e+06 9.66726e+06 9.66727e+06 9.66727e+06 1.14246e+07 1.14248e+07 1.14248e+07 1.14249e+07 1.14249e+07 1.31821e+07 1.31823e+07 1.31824e+07 1.31824e+07 1.31824e+07 1.49397e+07 1.49399e+07 1.494e+07 1.494e+07 1.49399e+07 1.66973e+07 1.66975e+07 1.66975e+07 1.66975e+07 1.66975e+07 879462 879458 879454 879447 879581 2.63698e+06 2.63698e+06 2.63697e+06 2.63702e+06 2.63721e+06 4.39451e+06 4.39451e+06 4.39452e+06 4.39459e+06 4.39479e+06 6.15207e+06 6.15207e+06 6.15209e+06 6.15215e+06 6.1523e+06 7.90966e+06 7.90967e+06 7.90967e+06 7.9097e+06 7.90975e+06 9.66727e+06 9.66727e+06 9.66726e+06 9.66724e+06 9.66718e+06 1.14249e+07 1.14249e+07 1.14248e+07 1.14248e+07 1.14246e+07 1.31824e+07 1.31824e+07 1.31824e+07 1.31823e+07 1.31821e+07 1.49399e+07 1.494e+07 1.494e+07 1.49399e+07 1.49397e+07 1.66975e+07 1.66975e+07 1.66975e+07 1.66975e+07 1.66973e+07 
</DataArray>
<DataArray Name="Stress_12" format="ascii" type="Float64">
1.07258e+06 3.21751e+06 5.36251e+06 7.50751e+06 9.6525e+06 1.07257e+06 3.2175e+06 5.36248e+06 7.50749e+06 9.6525e+06 1.07264e+06 3.2176e+06 5.36256e+06 7.50753e+06 9.65251e+06 1.07268e+06 3.21769e+06 5.36264e+06 7.50758e+06 9.65253e+06 1.07271e+06 3.21773e+06 5.36269e+06 7.50762e+06 9.65254e+06 1.07271e+06 3.21773e+06 5.36269e+06 7.50762e+06 9.65254e+06 1.07268e+06 3.21769e+06 5.36264e+06 7.50758e+06 9.65253e+06 1.07264e+06 3.2176e+06 5.36256e+06 7.50753e+06 9.65251e+06 1.07257e+06 3.2175e+06 5.36248e+06 7.50749e+06 9.6525e+06 1.07258e+06 3.21751e+06 5.36251e+06 7.50751e+06 9.6525e+06 1.17975e+07 1.39425e+07 1.60875e+07 1.82325e+07 2.03774e+07 1.17975e+07 1.39425e+07 1.60875e+07 1.82325e+07 2.03774e+07 1.17975e+07 1.39425e+07 1.60874e+07 1.82324e+07 2.03774e+07 1.17975e+07 1.39424e+07 1.60874e+07 1.82323e+07 2.03773e+07 1.17975e+07 1.39424e+07 1.60873e+07 1.82323e+07 2.03773e+07 1.17975e+07 1.39424e+07 1.60873e+07 1.82323e+07 2.03773e+07 1.17975e+07 1.39424e+07 1.60874e+07 1.82323e+07 2.03773e+07 1.17975e+07 1.39425e+07 1.60874e+07 1.82324e+07 2.03774e+07 1.17975e+07 1.39425e+07 1.60875e+07 1.82325e+07 2.03774e+07 1.17975e+07 1.39425e+07 1.60875e+07 1.82325e+07 2.03774e+07 
</DataArray>
<DataArray Name="Stress_13" format="ascii" type="Float64">
-5.66272e+07 -5.66256e+07 -5.66246e+07 -5.6624e+07 -5.66237e+07 -1.6987e+08 -1.69869e+08 -1.69869e+08 -1.69868e+08 -1.69868e+08 -2.83113e+08 -2.83112e+08 -2.83112e+08 -2.83112e+08 -2.83112e+08 -3.96355e+08 -3.96355e+08 -3.96355e+08 -3.96355e+08 -3.96355e+08 -5.09598e+08 -5.09598e+08 -5.09598e+08 -5.09598e+08 -5.09598e+08 -6.2284e+08 -6.22841e+08 -6.22841e+08 -6.22841e+08 -6.22841e+08 -7.36083e+08 -7.36083e+08 -7.36083e+08 -7.36084e+08 -7.36084e+08 -8.49325e+08 -8.49326e+08 -8.49326e+08 -8.49327e+08 -8.49327e+08 -9.62568e+08 -9.62569e+08 -9.6257e+08 -9.6257e+08 -9.6257e+08 -1.07581e+09 -1.07581e+09 -1.07581e+09 -1.07581e+09 -1.07581e+09 -5.66237e+07 -5.6624e+07 -5.66246e+07 -5.66256e+07 -5.66272e+07 -1.69868e+08 -1.69868e+08 -1.69869e+08 -1.69869e+08 -1.6987e+08 -2.83112e+08 -2.83112e+08 -2.83112e+08 -2.83112e+08 -2.83113e+08 -3.96355e+08 -3.96355e+08 -3.96355e+08 -3.96355e+08 -3.96355e+08 -5.09598e+08 -5.09598e+08 -5.09598e+08 -5.09598e+08 -5.09598e+08 -6.22841e+08 -6.22841e+08 -6.22841e+08 -6.22841e+08 -6.2284e+08 -7.36084e+08 -7.36084e+08 -7.36083e+08 -7.36083e+08 -7.36083e+08 -8.49327e+08 -8.49327e+08 -8.49326e+08 -8.49326e+08 -8.49325e+08 -9.6257e+08 -9.6257e+08 -9.6257e+08 -9.62569e+08 -9.62568e+08 -1.07581e+09 -1.07581e+09 -1.07581e+09 -1.07581e+09 -1.07581e+09 
</DataArray>
<DataArray Name="Stress_23" format="ascii" type="Float64">
1.89288e+07 5.67837e+07 9.46384e+07 1.32493e+08 1.70348e+08 1.89274e+07 5.67826e+07 9.46377e+07 1.32493e+08 1.70348e+08 1.89267e+07 5.6782e+07 9.46373e+07 1.32492e+08 1.70347e+08 1.89263e+07 5.67817e+07 9.4637e+07 1.32492e+08 1.70347e+08 1.89261e+07 5.67815e+07 9.46369e+07 1.32492e+08 1.70347e+08 1.89261e+07 5.67815e+07 9.46369e+07 1.32492e+08 1.70347e+08 1.89263e+07 5.67817e+07 9.4637e+07 1.32492e+08 1.70347e+08 1.89267e+07 5.6782e+07 9.46373e+07 1.32492e+08 1.70347e+08 1.89274e+07 5.67826e+07 9.46377e+07 1.32493e+08 1.70348e+08 1.89288e+07 5.67837e+07 9.46384e+07 1.32493e+08 1.70348e+08 2.08202e+08 2.46057e+08 2.83912e+08 3.21766e+08 3.59621e+08 2.08202e+08 2.46057e+08 2.83912e+08 3.21767e+08 3.59623e+08 2.08203e+08 2.46058e+08 2.83913e+08 3.21768e+08 3.59623e+08 2.08203e+08 2.46058e+08 2.83913e+08 3.21768e+08 3.59624e+08 2.08203e+08 2.46058e+08 2.83913e+08 3.21768e+08 3.59624e+08 2.08203e+08 2.46058e+08 2.83913e+08 3.21768e+08 3.59624e+08 2.08203e+08 2.46058e+08 2.83913e+08 3.21768e+08 3.59624e+08 2.08203e+08 2.46058e+08 2.83913e+08 3.21768e+08 3.59623e+08 2.08202e+08 2.46057e+08 2.83912e+08 3.21767e+08 3.59623e+08 2.08202e+08 2.46057e+08 2.83912e+08 3.21766e+08 3.59621e+08 
</DataArray>
<DataArray Name="Stress_33" format="ascii" type="Float64">
-3.78893e+07 -3.78886e+07 -3.78881e+07 -3.78878e+07 -3.78877e+07 -1.13661e+08 -1.1366e+08 -1.1366e+08 -1.1366e+08 -1.1366e+08 -1.89432e+08 -1.89432e+08 -1.89431e+08 -1.89431e+08 -1.89431e+08 -2.65203e+08 -2.65203e+08 -2.65203e+08 -2.65203e+08 -2.65203e+08 -3.40974e+08 -3.40974e+08 -3.40974e+08 -3.40974e+08 -3.40974e+08 -4.16745e+08 -4.16745e+08 -4.16745e+08 -4.16745e+08 -4.16745e+08 -4.92516e+08 -4.92516e+08 -4.92516e+08 -4.92516e+08 -4.92516e+08 -5.68287e+08 -5.68287e+08 -5.68287e+08 -5.68287e+08 -5.68287e+08 -6.44058e+08 -6.44058e+08 -6.44059e+08 -6.44059e+08 -6.44059e+08 -7.19829e+08 -7.1983e+08 -7.1983e+08 -7.19831e+08 -7.19831e+08 -3.78877e+07 -3.78878e+07 -3.78881e+07 -3.78886e+07 -3.78893e+07 -1.1366e+08 -1.1366e+08 -1.1366e+08 -1.1366e+08 -1.13661e+08 -1.89431e+08 -1.89431e+08 -1.89431e+08 -1.89432e+08 -1.89432e+08 -2.65203e+08 -2.65203e+08 -2.65203e+08 -2.65203e+08 -2.65203e+08 -3.40974e+08 -3.40974e+08 -3.40974e+08 -3.40974e+08 -3.40974e+08 -4.16745e+08 -4.16745e+08 -4.16745e+08 -4.16745e+08 -4.16745e+08 -4.92516e+08 -4.92516e+08 -4.92516e+08 -4.92516e+08 -4.92516e+08 -5.68287e+08 -5.68287e+08 -5.68287e+08 -5.68287e+08 -5.68287e+08 -6.44059e+08 -6.44059e+08 -6.44059e+08 -6.44058e+08 -6.44058e+08 -7.19831e+08 -7.19831e+08 -7.1983e+08 -7.1983e+08 -7.19829e+08 
</DataArray>
</CellData>
<Points>
<DataArray NumberOfComponents="3" format="ascii" type="Float64">
0 0 0 0 0.05 0 0 0.01 0 0 0.02 0 0 0.03 0 0 0.04 0 0.05 0.05 0 0.01 0.05 0 0.02 0.05 0 0.03 0.05 0 0.04 0.05 0 0.05 0 0 0.05 0.04 0 0.05 0.03 0 0.05 0.02 0 0.05 0.01 0 0.04 0 0 0.03 0 0 0.02 0 0 0.01 0 0 0.01 0.01 0 0.01 0.02 0 0.01 0.03 0 0.01 0.04 0 0.02 0.01 0 0.02 0.02 0 0.02 0.03 0 0.02 0.04 0 0.03 0.01 0 0.03 0.02 0 0.03 0.03 0 0.03 0.04 0 0.04 0.01 0 0.04 0.02 0 0.04 0.03 0 0.04 0.04 0 0 0.1 0 0 0.06 0 0 0.07 0 0 0.08 0 0 0.09 0 0.05 0.1 0 0.01 0.1 0 0.02 0.1 0 0.03 0.1 0 0.04 0.1 0 0.05 0.09 0 0.05 0.08 0 0.05 0.07 0 0.05 0.06 0 0.01 0.06 0 0.01 0.07 0 0.01 0.08 0 0.01 0.09 0 0.02 0.06 0 0.02 0.07 0 0.02 0.08 0 0.02 0.09 0 0.03 0.06 0 0.03 0.07 0 0.03 0.08 0 0.03 0.09 0 0.04 0.06 0 0.04 0.07 0 0.04 0.08 0 0.04 0.09 0 0.1 0.05 0 0.06 0.05 0 0.07 0.05 0 0.08 0.05 0 0.09 0.05 0 0.1 0 0 0.1 0.04 0 0.1 0.03 0 0.1 0.02 0 0.1 0.01 0 0.09 0 0 0.08 0 0 0.07 0 0 0.06 0 0 0.06 0.01 0 0.06 0.02 0 0.06 0.03 0 0.06 0.04 0 0.07 0.01 0 0.07 0.02 0 0.07 0.03 0 0.07 0.04 0 0.08 0.01 0 0.08 0.02 0 0.08 0.03 0 0.08 0.04 0 0.09 0.01 0 0.09 0.02 0 0.09 0.03 0 0.09 0.04 0 0.1 0.1 0 0.06 0.1 0 0.07 0.1 0 0.08 0.1 0 0.09 0.1 0 0.1 0.09 0 0.1 0.08 0 0.1 0.07 0 0.1 0.06 0 0.06 0.06 0 0.06 0.07 0 0.06 0.08 0 0.06 0.09 0 0.07 0.06 0 0.07 0.07 0 0.07 0.08 0 0.07 0.09 0 0.08 0.06 0 0.08 0.07 0 0.08 0.08 0 0.08 0.09 0 0.09 0.06 0 0.09 0.07 0 0.09 0.08 0 0.09 0.09 0 
</DataArray>
</Points>
<Cells>
<DataArray Name="connectivity" format="ascii" type="Int64">
0 19 20 2 19 18 24 20 18 17 28 24 17 16 32 28 16 11 15 32 2 20 21 3 20 24 25 21 24 28 29 25 28 32 33 29 32 15 14 33 3 21 22 4 21 25 26 22 25 29 30 26 29 33 34 30 33 14 13 34 4 22 23 5 22 26 27 23 26 30 31 27 30 34 35 31 34 13 12 35 5 23 7 1 23 27 8 7 27 31 9 8 31 35 10 9 35 12 6 10 1 7 50 37 7 8 54 50 8 9 58 54 9 10 62 58 10 6 49 62 37 50 51 38 50 54 55 51 54 58 59 55 58 62 63 59 62 49 48 63 38 51 52 39 51 55 56 52 55 59 60 56 59 63 64 60 63 48 47 64 39 52 53 40 52 56 57 53 56 60 61 57 60 64 65 61 64 47 46 65 40 53 42 36 53 57 43 42 57 61 44 43 61 65 45 44 65 46 41 45 11 79 80 15 79 78 84 80 78 77 88 84 77 76 92 88 76 71 75 92 15 80 81 14 80 84 85 81 84 88 89 85 88 92 93 89 92 75 74 93 14 81 82 13 81 85 86 82 85 89 90 86 89 93 94 90 93 74 73 94 13 82 83 12 82 86 87 83 86 90 91 87 90 94 95 91 94 73 72 95 12 83 67 6 83 87 68 67 87 91 69 68 91 95 70 69 95 72 66 70 6 67 105 49 67 68 109 105 68 69 113 109 69 70 117 113 70 66 104 117 49 105 106 48 105 109 110 106 109 113 114 110 113 117 118 114 117 104 103 118 48 106 107 47 106 110 111 107 110 114 115 111 114 118 119 115 118 103 102 119 47 107 108 46 107 111 112 108 111 115 116 112 115 119 120 116 119 102 101 120 46 108 97 41 108 112 98 97 112 116 99 98 116 120 100 99 120 101 96 100 
</DataArray>
<DataArray Name="offsets" format="ascii" type="Int64">
4 8 12 16 20 24 28 32 36 40 44 48 52 56 60 64 68 72 76 80 84 88 92 96 100 104 108 112 116 120 124 128 132 136 140 144 148 152 156 160 164 168 172 176 180 184 188 192 196 200 204 208 212 216 220 224 228 232 236 240 244 248 252 256 260 264 268 272 276 280 284 288 292 296 300 304 308 312 316 320 324 328 332 336 340 344 348 352 356 360 364 368 372 376 380 384 388 392 396 400 
</DataArray>
<DataArray Name="types" format="ascii" type="Int8">
9 9 9 9 9 9 9 9 9 9 9 9 9 9 9 9 9 9 9 9 9 9 9 9 9 9 9 9 9 9 9 9 9 9 9 9 9 9 9 9 9 9 9 9 9 9 9 9 9 9 9 9 9 9 9 9 9 9 9 9 9 9 9 9 9 9 9 9 9 9 9 9 9 9 9 9 9 9 9 9 9 9 9 9 9 9 9 9 9 9 9 9 9 9 9 9 9 9 9 9 
</DataArray>
</Cells>
</Piece>
</UnstructuredGrid>
</VTKFile>
